s -t 1.000000000 -Hs 0 -Hd -2 -Ni 0 -Nx 0.00 -Ny 200.00 -Nz 100.00 -Ne -1.000000 -Nl AGT -Nw --- -Ma 0 -Md 0 -Ms 0 -Mt 0 -Is 0.0 -Id 1.0 -It cbr -Il 512 -If 0 -Ii 0 -Iv 32 -Pn cbr -Pi 0 -Pf 0 -Po 0 
r -t 1.000000000 -Hs 0 -Hd -2 -Ni 0 -Nx 0.00 -Ny 200.00 -Nz 100.00 -Ne -1.000000 -Nl RTR -Nw --- -Ma 0 -Md 0 -Ms 0 -Mt 0 -Is 0.0 -Id 1.0 -It cbr -Il 512 -If 0 -Ii 0 -Iv 32 -Pn cbr -Pi 0 -Pf 0 -Po 0 
s -t 1.000000000 -Hs 0 -Hd -2 -Ni 0 -Nx 0.00 -Ny 200.00 -Nz 100.00 -Ne -1.000000 -Nl RTR -Nw --- -Ma 0 -Md 0 -Ms 0 -Mt 0 -Is 0.255 -Id -1.255 -It AODV -Il 48 -If 0 -Ii 0 -Iv 30 -P aodv -Pt 0x2 -Ph 1 -Pb 1 -Pd 1 -Pds 0 -Ps 0 -Pss 4 -Pc REQUEST 
s -t 1.000535000 -Hs 0 -Hd -2 -Ni 0 -Nx 0.00 -Ny 200.00 -Nz 100.00 -Ne -1.000000 -Nl MAC -Nw --- -Ma 0 -Md ffffffff -Ms 0 -Mt 800 -Is 0.255 -Id -1.255 -It AODV -Il 106 -If 0 -Ii 0 -Iv 30 -P aodv -Pt 0x2 -Ph 1 -Pb 1 -Pd 1 -Pds 0 -Ps 0 -Pss 4 -Pc REQUEST 
r -t 1.001384167 -Hs 1 -Hd -2 -Ni 1 -Nx 350.00 -Ny 200.00 -Nz 100.00 -Ne -1.000000 -Nl MAC -Nw --- -Ma 0 -Md ffffffff -Ms 0 -Mt 800 -Is 0.255 -Id -1.255 -It AODV -Il 48 -If 0 -Ii 0 -Iv 30 -P aodv -Pt 0x2 -Ph 1 -Pb 1 -Pd 1 -Pds 0 -Ps 0 -Pss 4 -Pc REQUEST 
r -t 1.001384213 -Hs 3 -Hd -2 -Ni 3 -Nx 350.00 -Ny 100.00 -Nz 100.00 -Ne -1.000000 -Nl MAC -Nw --- -Ma 0 -Md ffffffff -Ms 0 -Mt 800 -Is 0.255 -Id -1.255 -It AODV -Il 48 -If 0 -Ii 0 -Iv 30 -P aodv -Pt 0x2 -Ph 1 -Pb 1 -Pd 1 -Pds 0 -Ps 0 -Pss 4 -Pc REQUEST 
r -t 1.001409167 -Hs 1 -Hd -2 -Ni 1 -Nx 350.00 -Ny 200.00 -Nz 100.00 -Ne -1.000000 -Nl RTR -Nw --- -Ma 0 -Md ffffffff -Ms 0 -Mt 800 -Is 0.255 -Id -1.255 -It AODV -Il 48 -If 0 -Ii 0 -Iv 30 -P aodv -Pt 0x2 -Ph 1 -Pb 1 -Pd 1 -Pds 0 -Ps 0 -Pss 4 -Pc REQUEST 
s -t 1.001409167 -Hs 1 -Hd 0 -Ni 1 -Nx 350.00 -Ny 200.00 -Nz 100.00 -Ne -1.000000 -Nl RTR -Nw --- -Ma 0 -Md 0 -Ms 0 -Mt 0 -Is 1.255 -Id 0.255 -It AODV -Il 44 -If 0 -Ii 0 -Iv 30 -P aodv -Pt 0x4 -Ph 1 -Pd 1 -Pds 4 -Pl 10.000000 -Pc REPLY 
r -t 1.001409213 -Hs 3 -Hd -2 -Ni 3 -Nx 350.00 -Ny 100.00 -Nz 100.00 -Ne -1.000000 -Nl RTR -Nw --- -Ma 0 -Md ffffffff -Ms 0 -Mt 800 -Is 0.255 -Id -1.255 -It AODV -Il 48 -If 0 -Ii 0 -Iv 30 -P aodv -Pt 0x2 -Ph 1 -Pb 1 -Pd 1 -Pds 0 -Ps 0 -Pss 4 -Pc REQUEST 
s -t 1.001551260 -Hs 3 -Hd -2 -Ni 3 -Nx 350.00 -Ny 100.00 -Nz 100.00 -Ne -1.000000 -Nl RTR -Nw --- -Ma 0 -Md ffffffff -Ms 0 -Mt 800 -Is 3.255 -Id -1.255 -It AODV -Il 48 -If 0 -Ii 0 -Iv 29 -P aodv -Pt 0x2 -Ph 2 -Pb 1 -Pd 1 -Pds 0 -Ps 0 -Pss 4 -Pc REQUEST 
s -t 1.001764167 -Hs 1 -Hd -2 -Ni 1 -Nx 350.00 -Ny 200.00 -Nz 100.00 -Ne -1.000000 -Nl MAC -Nw --- -Ma 0 -Md ffffffff -Ms 1 -Mt 806 -P arp -Po REQUEST -Pms 1 -Ps 1 -Pmd 0 -Pd 0 
r -t 1.002452500 -Hs 3 -Hd -2 -Ni 3 -Nx 350.00 -Ny 100.00 -Nz 100.00 -Ne -1.000000 -Nl MAC -Nw --- -Ma 0 -Md ffffffff -Ms 1 -Mt 806 -P arp -Po REQUEST -Pms 1 -Ps 1 -Pmd 0 -Pd 0 
r -t 1.002453333 -Hs 0 -Hd -2 -Ni 0 -Nx 0.00 -Ny 200.00 -Nz 100.00 -Ne -1.000000 -Nl MAC -Nw --- -Ma 0 -Md ffffffff -Ms 1 -Mt 806 -P arp -Po REQUEST -Pms 1 -Ps 1 -Pmd 0 -Pd 0 
r -t 1.002453333 -Hs 2 -Hd -2 -Ni 2 -Nx 700.00 -Ny 200.00 -Nz 100.00 -Ne -1.000000 -Nl MAC -Nw --- -Ma 0 -Md ffffffff -Ms 1 -Mt 806 -P arp -Po REQUEST -Pms 1 -Ps 1 -Pmd 0 -Pd 0 
s -t 1.002668333 -Hs 0 -Hd -2 -Ni 0 -Nx 0.00 -Ny 200.00 -Nz 100.00 -Ne -1.000000 -Nl MAC -Nw --- -Ma 52e -Md 1 -Ms 0 -Mt 0 
r -t 1.003021500 -Hs 1 -Hd -2 -Ni 1 -Nx 350.00 -Ny 200.00 -Nz 100.00 -Ne -1.000000 -Nl MAC -Nw --- -Ma 52e -Md 1 -Ms 0 -Mt 0 
s -t 1.003031500 -Hs 1 -Hd -2 -Ni 1 -Nx 350.00 -Ny 200.00 -Nz 100.00 -Ne -1.000000 -Nl MAC -Nw --- -Ma 3f4 -Md 0 -Ms 0 -Mt 0 
r -t 1.003336667 -Hs 0 -Hd -2 -Ni 0 -Nx 0.00 -Ny 200.00 -Nz 100.00 -Ne -1.000000 -Nl MAC -Nw --- -Ma 3f4 -Md 0 -Ms 0 -Mt 0 
s -t 1.003346667 -Hs 0 -Hd -2 -Ni 0 -Nx 0.00 -Ny 200.00 -Nz 100.00 -Ne -1.000000 -Nl MAC -Nw --- -Ma 13a -Md 1 -Ms 0 -Mt 806 -P arp -Po REPLY -Pms 0 -Ps 0 -Pmd 1 -Pd 1 
r -t 1.004035833 -Hs 1 -Hd -2 -Ni 1 -Nx 350.00 -Ny 200.00 -Nz 100.00 -Ne -1.000000 -Nl MAC -Nw --- -Ma 13a -Md 1 -Ms 0 -Mt 806 -P arp -Po REPLY -Pms 0 -Ps 0 -Pmd 1 -Pd 1 
s -t 1.004045833 -Hs 1 -Hd -2 -Ni 1 -Nx 350.00 -Ny 200.00 -Nz 100.00 -Ne -1.000000 -Nl MAC -Nw --- -Ma 0 -Md 0 -Ms 0 -Mt 0 
r -t 1.004351000 -Hs 0 -Hd -2 -Ni 0 -Nx 0.00 -Ny 200.00 -Nz 100.00 -Ne -1.000000 -Nl MAC -Nw --- -Ma 0 -Md 0 -Ms 0 -Mt 0 
s -t 1.004440167 -Hs 3 -Hd -2 -Ni 3 -Nx 350.00 -Ny 100.00 -Nz 100.00 -Ne -1.000000 -Nl MAC -Nw --- -Ma 0 -Md ffffffff -Ms 3 -Mt 800 -Is 3.255 -Id -1.255 -It AODV -Il 106 -If 0 -Ii 0 -Iv 29 -P aodv -Pt 0x2 -Ph 2 -Pb 1 -Pd 1 -Pds 0 -Ps 0 -Pss 4 -Pc REQUEST 
r -t 1.005288500 -Hs 1 -Hd -2 -Ni 1 -Nx 350.00 -Ny 200.00 -Nz 100.00 -Ne -1.000000 -Nl MAC -Nw --- -Ma 0 -Md ffffffff -Ms 3 -Mt 800 -Is 3.255 -Id -1.255 -It AODV -Il 48 -If 0 -Ii 0 -Iv 29 -P aodv -Pt 0x2 -Ph 2 -Pb 1 -Pd 1 -Pds 0 -Ps 0 -Pss 4 -Pc REQUEST 
r -t 1.005289380 -Hs 0 -Hd -2 -Ni 0 -Nx 0.00 -Ny 200.00 -Nz 100.00 -Ne -1.000000 -Nl MAC -Nw --- -Ma 0 -Md ffffffff -Ms 3 -Mt 800 -Is 3.255 -Id -1.255 -It AODV -Il 48 -If 0 -Ii 0 -Iv 29 -P aodv -Pt 0x2 -Ph 2 -Pb 1 -Pd 1 -Pds 0 -Ps 0 -Pss 4 -Pc REQUEST 
r -t 1.005289380 -Hs 2 -Hd -2 -Ni 2 -Nx 700.00 -Ny 200.00 -Nz 100.00 -Ne -1.000000 -Nl MAC -Nw --- -Ma 0 -Md ffffffff -Ms 3 -Mt 800 -Is 3.255 -Id -1.255 -It AODV -Il 48 -If 0 -Ii 0 -Iv 29 -P aodv -Pt 0x2 -Ph 2 -Pb 1 -Pd 1 -Pds 0 -Ps 0 -Pss 4 -Pc REQUEST 
r -t 1.005313500 -Hs 1 -Hd -2 -Ni 1 -Nx 350.00 -Ny 200.00 -Nz 100.00 -Ne -1.000000 -Nl RTR -Nw --- -Ma 0 -Md ffffffff -Ms 3 -Mt 800 -Is 3.255 -Id -1.255 -It AODV -Il 48 -If 0 -Ii 0 -Iv 29 -P aodv -Pt 0x2 -Ph 2 -Pb 1 -Pd 1 -Pds 0 -Ps 0 -Pss 4 -Pc REQUEST 
r -t 1.005314380 -Hs 0 -Hd -2 -Ni 0 -Nx 0.00 -Ny 200.00 -Nz 100.00 -Ne -1.000000 -Nl RTR -Nw --- -Ma 0 -Md ffffffff -Ms 3 -Mt 800 -Is 3.255 -Id -1.255 -It AODV -Il 48 -If 0 -Ii 0 -Iv 29 -P aodv -Pt 0x2 -Ph 2 -Pb 1 -Pd 1 -Pds 0 -Ps 0 -Pss 4 -Pc REQUEST 
r -t 1.005314380 -Hs 2 -Hd -2 -Ni 2 -Nx 700.00 -Ny 200.00 -Nz 100.00 -Ne -1.000000 -Nl RTR -Nw --- -Ma 0 -Md ffffffff -Ms 3 -Mt 800 -Is 3.255 -Id -1.255 -It AODV -Il 48 -If 0 -Ii 0 -Iv 29 -P aodv -Pt 0x2 -Ph 2 -Pb 1 -Pd 1 -Pds 0 -Ps 0 -Pss 4 -Pc REQUEST 
s -t 1.005498500 -Hs 1 -Hd -2 -Ni 1 -Nx 350.00 -Ny 200.00 -Nz 100.00 -Ne -1.000000 -Nl MAC -Nw --- -Ma 5ae -Md 0 -Ms 1 -Mt 0 
r -t 1.005851667 -Hs 0 -Hd -2 -Ni 0 -Nx 0.00 -Ny 200.00 -Nz 100.00 -Ne -1.000000 -Nl MAC -Nw --- -Ma 5ae -Md 0 -Ms 1 -Mt 0 
s -t 1.005861667 -Hs 0 -Hd -2 -Ni 0 -Nx 0.00 -Ny 200.00 -Nz 100.00 -Ne -1.000000 -Nl MAC -Nw --- -Ma 474 -Md 1 -Ms 0 -Mt 0 
r -t 1.006166833 -Hs 1 -Hd -2 -Ni 1 -Nx 350.00 -Ny 200.00 -Nz 100.00 -Ne -1.000000 -Nl MAC -Nw --- -Ma 474 -Md 1 -Ms 0 -Mt 0 
s -t 1.006176833 -Hs 1 -Hd 0 -Ni 1 -Nx 350.00 -Ny 200.00 -Nz 100.00 -Ne -1.000000 -Nl MAC -Nw --- -Ma 13a -Md 0 -Ms 1 -Mt 800 -Is 1.255 -Id 0.255 -It AODV -Il 102 -If 0 -Ii 0 -Iv 30 -P aodv -Pt 0x4 -Ph 1 -Pd 1 -Pds 4 -Pl 10.000000 -Pc REPLY 
r -t 1.006994000 -Hs 0 -Hd 0 -Ni 0 -Nx 0.00 -Ny 200.00 -Nz 100.00 -Ne -1.000000 -Nl MAC -Nw --- -Ma 13a -Md 0 -Ms 1 -Mt 800 -Is 1.255 -Id 0.255 -It AODV -Il 44 -If 0 -Ii 0 -Iv 30 -P aodv -Pt 0x4 -Ph 1 -Pd 1 -Pds 4 -Pl 10.000000 -Pc REPLY 
s -t 1.007004000 -Hs 0 -Hd -2 -Ni 0 -Nx 0.00 -Ny 200.00 -Nz 100.00 -Ne -1.000000 -Nl MAC -Nw --- -Ma 0 -Md 1 -Ms 0 -Mt 0 
r -t 1.007019000 -Hs 0 -Hd 0 -Ni 0 -Nx 0.00 -Ny 200.00 -Nz 100.00 -Ne -1.000000 -Nl RTR -Nw --- -Ma 13a -Md 0 -Ms 1 -Mt 800 -Is 1.255 -Id 0.255 -It AODV -Il 44 -If 0 -Ii 0 -Iv 30 -P aodv -Pt 0x4 -Ph 1 -Pd 1 -Pds 4 -Pl 10.000000 -Pc REPLY 
s -t 1.007019000 -Hs 0 -Hd 1 -Ni 0 -Nx 0.00 -Ny 200.00 -Nz 100.00 -Ne -1.000000 -Nl RTR -Nw --- -Ma 0 -Md 0 -Ms 0 -Mt 0 -Is 0.0 -Id 1.0 -It cbr -Il 532 -If 0 -Ii 0 -Iv 30 -Pn cbr -Pi 0 -Pf 0 -Po 0 
r -t 1.007309167 -Hs 1 -Hd -2 -Ni 1 -Nx 350.00 -Ny 200.00 -Nz 100.00 -Ne -1.000000 -Nl MAC -Nw --- -Ma 0 -Md 1 -Ms 0 -Mt 0 
s -t 1.007398000 -Hs 0 -Hd -2 -Ni 0 -Nx 0.00 -Ny 200.00 -Nz 100.00 -Ne -1.000000 -Nl MAC -Nw --- -Ma 14ee -Md 1 -Ms 0 -Mt 0 
r -t 1.007751167 -Hs 1 -Hd -2 -Ni 1 -Nx 350.00 -Ny 200.00 -Nz 100.00 -Ne -1.000000 -Nl MAC -Nw --- -Ma 14ee -Md 1 -Ms 0 -Mt 0 
s -t 1.007761167 -Hs 1 -Hd -2 -Ni 1 -Nx 350.00 -Ny 200.00 -Nz 100.00 -Ne -1.000000 -Nl MAC -Nw --- -Ma 13b4 -Md 0 -Ms 0 -Mt 0 
r -t 1.008066333 -Hs 0 -Hd -2 -Ni 0 -Nx 0.00 -Ny 200.00 -Nz 100.00 -Ne -1.000000 -Nl MAC -Nw --- -Ma 13b4 -Md 0 -Ms 0 -Mt 0 
s -t 1.008076333 -Hs 0 -Hd 1 -Ni 0 -Nx 0.00 -Ny 200.00 -Nz 100.00 -Ne -1.000000 -Nl MAC -Nw --- -Ma 13a -Md 1 -Ms 0 -Mt 800 -Is 0.0 -Id 1.0 -It cbr -Il 590 -If 0 -Ii 0 -Iv 30 -Pn cbr -Pi 0 -Pf 0 -Po 0 
s -t 1.008405171 -Hs 2 -Hd -2 -Ni 2 -Nx 700.00 -Ny 200.00 -Nz 100.00 -Ne -1.000000 -Nl RTR -Nw --- -Ma 0 -Md ffffffff -Ms 3 -Mt 800 -Is 2.255 -Id -1.255 -It AODV -Il 48 -If 0 -Ii 0 -Iv 28 -P aodv -Pt 0x2 -Ph 3 -Pb 1 -Pd 1 -Pds 0 -Ps 0 -Pss 4 -Pc REQUEST 
r -t 1.012797500 -Hs 1 -Hd 1 -Ni 1 -Nx 350.00 -Ny 200.00 -Nz 100.00 -Ne -1.000000 -Nl MAC -Nw --- -Ma 13a -Md 1 -Ms 0 -Mt 800 -Is 0.0 -Id 1.0 -It cbr -Il 532 -If 0 -Ii 0 -Iv 30 -Pn cbr -Pi 0 -Pf 1 -Po 0 
s -t 1.012807500 -Hs 1 -Hd -2 -Ni 1 -Nx 350.00 -Ny 200.00 -Nz 100.00 -Ne -1.000000 -Nl MAC -Nw --- -Ma 0 -Md 0 -Ms 0 -Mt 0 
r -t 1.012822500 -Hs 1 -Hd 1 -Ni 1 -Nx 350.00 -Ny 200.00 -Nz 100.00 -Ne -1.000000 -Nl AGT -Nw --- -Ma 13a -Md 1 -Ms 0 -Mt 800 -Is 0.0 -Id 1.0 -It cbr -Il 532 -If 0 -Ii 0 -Iv 30 -Pn cbr -Pi 0 -Pf 1 -Po 0 
r -t 1.013112667 -Hs 0 -Hd -2 -Ni 0 -Nx 0.00 -Ny 200.00 -Nz 100.00 -Ne -1.000000 -Nl MAC -Nw --- -Ma 0 -Md 0 -Ms 0 -Mt 0 
s -t 1.013202667 -Hs 2 -Hd -2 -Ni 2 -Nx 700.00 -Ny 200.00 -Nz 100.00 -Ne -1.000000 -Nl MAC -Nw --- -Ma 0 -Md ffffffff -Ms 2 -Mt 800 -Is 2.255 -Id -1.255 -It AODV -Il 106 -If 0 -Ii 0 -Iv 28 -P aodv -Pt 0x2 -Ph 3 -Pb 1 -Pd 1 -Pds 0 -Ps 0 -Pss 4 -Pc REQUEST 
r -t 1.014051833 -Hs 1 -Hd -2 -Ni 1 -Nx 350.00 -Ny 200.00 -Nz 100.00 -Ne -1.000000 -Nl MAC -Nw --- -Ma 0 -Md ffffffff -Ms 2 -Mt 800 -Is 2.255 -Id -1.255 -It AODV -Il 48 -If 0 -Ii 0 -Iv 28 -P aodv -Pt 0x2 -Ph 3 -Pb 1 -Pd 1 -Pds 0 -Ps 0 -Pss 4 -Pc REQUEST 
r -t 1.014051880 -Hs 3 -Hd -2 -Ni 3 -Nx 350.00 -Ny 100.00 -Nz 100.00 -Ne -1.000000 -Nl MAC -Nw --- -Ma 0 -Md ffffffff -Ms 2 -Mt 800 -Is 2.255 -Id -1.255 -It AODV -Il 48 -If 0 -Ii 0 -Iv 28 -P aodv -Pt 0x2 -Ph 3 -Pb 1 -Pd 1 -Pds 0 -Ps 0 -Pss 4 -Pc REQUEST 
r -t 1.014076833 -Hs 1 -Hd -2 -Ni 1 -Nx 350.00 -Ny 200.00 -Nz 100.00 -Ne -1.000000 -Nl RTR -Nw --- -Ma 0 -Md ffffffff -Ms 2 -Mt 800 -Is 2.255 -Id -1.255 -It AODV -Il 48 -If 0 -Ii 0 -Iv 28 -P aodv -Pt 0x2 -Ph 3 -Pb 1 -Pd 1 -Pds 0 -Ps 0 -Pss 4 -Pc REQUEST 
r -t 1.014076880 -Hs 3 -Hd -2 -Ni 3 -Nx 350.00 -Ny 100.00 -Nz 100.00 -Ne -1.000000 -Nl RTR -Nw --- -Ma 0 -Md ffffffff -Ms 2 -Mt 800 -Is 2.255 -Id -1.255 -It AODV -Il 48 -If 0 -Ii 0 -Iv 28 -P aodv -Pt 0x2 -Ph 3 -Pb 1 -Pd 1 -Pds 0 -Ps 0 -Pss 4 -Pc REQUEST 
s -t 1.100000000 -Hs 0 -Hd -2 -Ni 0 -Nx 0.00 -Ny 200.00 -Nz 100.00 -Ne -1.000000 -Nl AGT -Nw --- -Ma 0 -Md 0 -Ms 0 -Mt 0 -Is 0.0 -Id 1.0 -It cbr -Il 512 -If 0 -Ii 1 -Iv 32 -Pn cbr -Pi 1 -Pf 0 -Po 0 
r -t 1.100000000 -Hs 0 -Hd -2 -Ni 0 -Nx 0.00 -Ny 200.00 -Nz 100.00 -Ne -1.000000 -Nl RTR -Nw --- -Ma 0 -Md 0 -Ms 0 -Mt 0 -Is 0.0 -Id 1.0 -It cbr -Il 512 -If 0 -Ii 1 -Iv 32 -Pn cbr -Pi 1 -Pf 0 -Po 0 
s -t 1.100000000 -Hs 0 -Hd 1 -Ni 0 -Nx 0.00 -Ny 200.00 -Nz 100.00 -Ne -1.000000 -Nl RTR -Nw --- -Ma 0 -Md 0 -Ms 0 -Mt 0 -Is 0.0 -Id 1.0 -It cbr -Il 532 -If 0 -Ii 1 -Iv 30 -Pn cbr -Pi 1 -Pf 0 -Po 0 
s -t 1.100435000 -Hs 0 -Hd -2 -Ni 0 -Nx 0.00 -Ny 200.00 -Nz 100.00 -Ne -1.000000 -Nl MAC -Nw --- -Ma 14ee -Md 1 -Ms 0 -Mt 0 
r -t 1.100788167 -Hs 1 -Hd -2 -Ni 1 -Nx 350.00 -Ny 200.00 -Nz 100.00 -Ne -1.000000 -Nl MAC -Nw --- -Ma 14ee -Md 1 -Ms 0 -Mt 0 
s -t 1.100798167 -Hs 1 -Hd -2 -Ni 1 -Nx 350.00 -Ny 200.00 -Nz 100.00 -Ne -1.000000 -Nl MAC -Nw --- -Ma 13b4 -Md 0 -Ms 0 -Mt 0 
r -t 1.101103333 -Hs 0 -Hd -2 -Ni 0 -Nx 0.00 -Ny 200.00 -Nz 100.00 -Ne -1.000000 -Nl MAC -Nw --- -Ma 13b4 -Md 0 -Ms 0 -Mt 0 
s -t 1.101113333 -Hs 0 -Hd 1 -Ni 0 -Nx 0.00 -Ny 200.00 -Nz 100.00 -Ne -1.000000 -Nl MAC -Nw --- -Ma 13a -Md 1 -Ms 0 -Mt 800 -Is 0.0 -Id 1.0 -It cbr -Il 590 -If 0 -Ii 1 -Iv 30 -Pn cbr -Pi 1 -Pf 0 -Po 0 
r -t 1.105834500 -Hs 1 -Hd 1 -Ni 1 -Nx 350.00 -Ny 200.00 -Nz 100.00 -Ne -1.000000 -Nl MAC -Nw --- -Ma 13a -Md 1 -Ms 0 -Mt 800 -Is 0.0 -Id 1.0 -It cbr -Il 532 -If 0 -Ii 1 -Iv 30 -Pn cbr -Pi 1 -Pf 1 -Po 0 
s -t 1.105844500 -Hs 1 -Hd -2 -Ni 1 -Nx 350.00 -Ny 200.00 -Nz 100.00 -Ne -1.000000 -Nl MAC -Nw --- -Ma 0 -Md 0 -Ms 0 -Mt 0 
r -t 1.105859500 -Hs 1 -Hd 1 -Ni 1 -Nx 350.00 -Ny 200.00 -Nz 100.00 -Ne -1.000000 -Nl AGT -Nw --- -Ma 13a -Md 1 -Ms 0 -Mt 800 -Is 0.0 -Id 1.0 -It cbr -Il 532 -If 0 -Ii 1 -Iv 30 -Pn cbr -Pi 1 -Pf 1 -Po 0 
r -t 1.106149667 -Hs 0 -Hd -2 -Ni 0 -Nx 0.00 -Ny 200.00 -Nz 100.00 -Ne -1.000000 -Nl MAC -Nw --- -Ma 0 -Md 0 -Ms 0 -Mt 0 
s -t 1.200000000 -Hs 0 -Hd -2 -Ni 0 -Nx 0.00 -Ny 200.00 -Nz 100.00 -Ne -1.000000 -Nl AGT -Nw --- -Ma 0 -Md 0 -Ms 0 -Mt 0 -Is 0.0 -Id 1.0 -It cbr -Il 512 -If 0 -Ii 2 -Iv 32 -Pn cbr -Pi 2 -Pf 0 -Po 0 
r -t 1.200000000 -Hs 0 -Hd -2 -Ni 0 -Nx 0.00 -Ny 200.00 -Nz 100.00 -Ne -1.000000 -Nl RTR -Nw --- -Ma 0 -Md 0 -Ms 0 -Mt 0 -Is 0.0 -Id 1.0 -It cbr -Il 512 -If 0 -Ii 2 -Iv 32 -Pn cbr -Pi 2 -Pf 0 -Po 0 
s -t 1.200000000 -Hs 0 -Hd 1 -Ni 0 -Nx 0.00 -Ny 200.00 -Nz 100.00 -Ne -1.000000 -Nl RTR -Nw --- -Ma 0 -Md 0 -Ms 0 -Mt 0 -Is 0.0 -Id 1.0 -It cbr -Il 532 -If 0 -Ii 2 -Iv 30 -Pn cbr -Pi 2 -Pf 0 -Po 0 
s -t 1.200235000 -Hs 0 -Hd -2 -Ni 0 -Nx 0.00 -Ny 200.00 -Nz 100.00 -Ne -1.000000 -Nl MAC -Nw --- -Ma 14ee -Md 1 -Ms 0 -Mt 0 
r -t 1.200588167 -Hs 1 -Hd -2 -Ni 1 -Nx 350.00 -Ny 200.00 -Nz 100.00 -Ne -1.000000 -Nl MAC -Nw --- -Ma 14ee -Md 1 -Ms 0 -Mt 0 
s -t 1.200598167 -Hs 1 -Hd -2 -Ni 1 -Nx 350.00 -Ny 200.00 -Nz 100.00 -Ne -1.000000 -Nl MAC -Nw --- -Ma 13b4 -Md 0 -Ms 0 -Mt 0 
r -t 1.200903333 -Hs 0 -Hd -2 -Ni 0 -Nx 0.00 -Ny 200.00 -Nz 100.00 -Ne -1.000000 -Nl MAC -Nw --- -Ma 13b4 -Md 0 -Ms 0 -Mt 0 
s -t 1.200913333 -Hs 0 -Hd 1 -Ni 0 -Nx 0.00 -Ny 200.00 -Nz 100.00 -Ne -1.000000 -Nl MAC -Nw --- -Ma 13a -Md 1 -Ms 0 -Mt 800 -Is 0.0 -Id 1.0 -It cbr -Il 590 -If 0 -Ii 2 -Iv 30 -Pn cbr -Pi 2 -Pf 0 -Po 0 
r -t 1.205634500 -Hs 1 -Hd 1 -Ni 1 -Nx 350.00 -Ny 200.00 -Nz 100.00 -Ne -1.000000 -Nl MAC -Nw --- -Ma 13a -Md 1 -Ms 0 -Mt 800 -Is 0.0 -Id 1.0 -It cbr -Il 532 -If 0 -Ii 2 -Iv 30 -Pn cbr -Pi 2 -Pf 1 -Po 0 
s -t 1.205644500 -Hs 1 -Hd -2 -Ni 1 -Nx 350.00 -Ny 200.00 -Nz 100.00 -Ne -1.000000 -Nl MAC -Nw --- -Ma 0 -Md 0 -Ms 0 -Mt 0 
r -t 1.205659500 -Hs 1 -Hd 1 -Ni 1 -Nx 350.00 -Ny 200.00 -Nz 100.00 -Ne -1.000000 -Nl AGT -Nw --- -Ma 13a -Md 1 -Ms 0 -Mt 800 -Is 0.0 -Id 1.0 -It cbr -Il 532 -If 0 -Ii 2 -Iv 30 -Pn cbr -Pi 2 -Pf 1 -Po 0 
r -t 1.205949667 -Hs 0 -Hd -2 -Ni 0 -Nx 0.00 -Ny 200.00 -Nz 100.00 -Ne -1.000000 -Nl MAC -Nw --- -Ma 0 -Md 0 -Ms 0 -Mt 0 
s -t 1.300000000 -Hs 0 -Hd -2 -Ni 0 -Nx 0.00 -Ny 200.00 -Nz 100.00 -Ne -1.000000 -Nl AGT -Nw --- -Ma 0 -Md 0 -Ms 0 -Mt 0 -Is 0.0 -Id 1.0 -It cbr -Il 512 -If 0 -Ii 3 -Iv 32 -Pn cbr -Pi 3 -Pf 0 -Po 0 
r -t 1.300000000 -Hs 0 -Hd -2 -Ni 0 -Nx 0.00 -Ny 200.00 -Nz 100.00 -Ne -1.000000 -Nl RTR -Nw --- -Ma 0 -Md 0 -Ms 0 -Mt 0 -Is 0.0 -Id 1.0 -It cbr -Il 512 -If 0 -Ii 3 -Iv 32 -Pn cbr -Pi 3 -Pf 0 -Po 0 
s -t 1.300000000 -Hs 0 -Hd 1 -Ni 0 -Nx 0.00 -Ny 200.00 -Nz 100.00 -Ne -1.000000 -Nl RTR -Nw --- -Ma 0 -Md 0 -Ms 0 -Mt 0 -Is 0.0 -Id 1.0 -It cbr -Il 532 -If 0 -Ii 3 -Iv 30 -Pn cbr -Pi 3 -Pf 0 -Po 0 
s -t 1.300415000 -Hs 0 -Hd -2 -Ni 0 -Nx 0.00 -Ny 200.00 -Nz 100.00 -Ne -1.000000 -Nl MAC -Nw --- -Ma 14ee -Md 1 -Ms 0 -Mt 0 
r -t 1.300768167 -Hs 1 -Hd -2 -Ni 1 -Nx 350.00 -Ny 200.00 -Nz 100.00 -Ne -1.000000 -Nl MAC -Nw --- -Ma 14ee -Md 1 -Ms 0 -Mt 0 
s -t 1.300778167 -Hs 1 -Hd -2 -Ni 1 -Nx 350.00 -Ny 200.00 -Nz 100.00 -Ne -1.000000 -Nl MAC -Nw --- -Ma 13b4 -Md 0 -Ms 0 -Mt 0 
r -t 1.301083333 -Hs 0 -Hd -2 -Ni 0 -Nx 0.00 -Ny 200.00 -Nz 100.00 -Ne -1.000000 -Nl MAC -Nw --- -Ma 13b4 -Md 0 -Ms 0 -Mt 0 
s -t 1.301093333 -Hs 0 -Hd 1 -Ni 0 -Nx 0.00 -Ny 200.00 -Nz 100.00 -Ne -1.000000 -Nl MAC -Nw --- -Ma 13a -Md 1 -Ms 0 -Mt 800 -Is 0.0 -Id 1.0 -It cbr -Il 590 -If 0 -Ii 3 -Iv 30 -Pn cbr -Pi 3 -Pf 0 -Po 0 
r -t 1.305814500 -Hs 1 -Hd 1 -Ni 1 -Nx 350.00 -Ny 200.00 -Nz 100.00 -Ne -1.000000 -Nl MAC -Nw --- -Ma 13a -Md 1 -Ms 0 -Mt 800 -Is 0.0 -Id 1.0 -It cbr -Il 532 -If 0 -Ii 3 -Iv 30 -Pn cbr -Pi 3 -Pf 1 -Po 0 
s -t 1.305824500 -Hs 1 -Hd -2 -Ni 1 -Nx 350.00 -Ny 200.00 -Nz 100.00 -Ne -1.000000 -Nl MAC -Nw --- -Ma 0 -Md 0 -Ms 0 -Mt 0 
r -t 1.305839500 -Hs 1 -Hd 1 -Ni 1 -Nx 350.00 -Ny 200.00 -Nz 100.00 -Ne -1.000000 -Nl AGT -Nw --- -Ma 13a -Md 1 -Ms 0 -Mt 800 -Is 0.0 -Id 1.0 -It cbr -Il 532 -If 0 -Ii 3 -Iv 30 -Pn cbr -Pi 3 -Pf 1 -Po 0 
r -t 1.306129667 -Hs 0 -Hd -2 -Ni 0 -Nx 0.00 -Ny 200.00 -Nz 100.00 -Ne -1.000000 -Nl MAC -Nw --- -Ma 0 -Md 0 -Ms 0 -Mt 0 
s -t 1.400000000 -Hs 0 -Hd -2 -Ni 0 -Nx 0.00 -Ny 200.00 -Nz 100.00 -Ne -1.000000 -Nl AGT -Nw --- -Ma 0 -Md 0 -Ms 0 -Mt 0 -Is 0.0 -Id 1.0 -It cbr -Il 512 -If 0 -Ii 4 -Iv 32 -Pn cbr -Pi 4 -Pf 0 -Po 0 
r -t 1.400000000 -Hs 0 -Hd -2 -Ni 0 -Nx 0.00 -Ny 200.00 -Nz 100.00 -Ne -1.000000 -Nl RTR -Nw --- -Ma 0 -Md 0 -Ms 0 -Mt 0 -Is 0.0 -Id 1.0 -It cbr -Il 512 -If 0 -Ii 4 -Iv 32 -Pn cbr -Pi 4 -Pf 0 -Po 0 
s -t 1.400000000 -Hs 0 -Hd 1 -Ni 0 -Nx 0.00 -Ny 200.00 -Nz 100.00 -Ne -1.000000 -Nl RTR -Nw --- -Ma 0 -Md 0 -Ms 0 -Mt 0 -Is 0.0 -Id 1.0 -It cbr -Il 532 -If 0 -Ii 4 -Iv 30 -Pn cbr -Pi 4 -Pf 0 -Po 0 
s -t 1.400275000 -Hs 0 -Hd -2 -Ni 0 -Nx 0.00 -Ny 200.00 -Nz 100.00 -Ne -1.000000 -Nl MAC -Nw --- -Ma 14ee -Md 1 -Ms 0 -Mt 0 
r -t 1.400628167 -Hs 1 -Hd -2 -Ni 1 -Nx 350.00 -Ny 200.00 -Nz 100.00 -Ne -1.000000 -Nl MAC -Nw --- -Ma 14ee -Md 1 -Ms 0 -Mt 0 
s -t 1.400638167 -Hs 1 -Hd -2 -Ni 1 -Nx 350.00 -Ny 200.00 -Nz 100.00 -Ne -1.000000 -Nl MAC -Nw --- -Ma 13b4 -Md 0 -Ms 0 -Mt 0 
r -t 1.400943333 -Hs 0 -Hd -2 -Ni 0 -Nx 0.00 -Ny 200.00 -Nz 100.00 -Ne -1.000000 -Nl MAC -Nw --- -Ma 13b4 -Md 0 -Ms 0 -Mt 0 
s -t 1.400953333 -Hs 0 -Hd 1 -Ni 0 -Nx 0.00 -Ny 200.00 -Nz 100.00 -Ne -1.000000 -Nl MAC -Nw --- -Ma 13a -Md 1 -Ms 0 -Mt 800 -Is 0.0 -Id 1.0 -It cbr -Il 590 -If 0 -Ii 4 -Iv 30 -Pn cbr -Pi 4 -Pf 0 -Po 0 
r -t 1.405674500 -Hs 1 -Hd 1 -Ni 1 -Nx 350.00 -Ny 200.00 -Nz 100.00 -Ne -1.000000 -Nl MAC -Nw --- -Ma 13a -Md 1 -Ms 0 -Mt 800 -Is 0.0 -Id 1.0 -It cbr -Il 532 -If 0 -Ii 4 -Iv 30 -Pn cbr -Pi 4 -Pf 1 -Po 0 
s -t 1.405684500 -Hs 1 -Hd -2 -Ni 1 -Nx 350.00 -Ny 200.00 -Nz 100.00 -Ne -1.000000 -Nl MAC -Nw --- -Ma 0 -Md 0 -Ms 0 -Mt 0 
r -t 1.405699500 -Hs 1 -Hd 1 -Ni 1 -Nx 350.00 -Ny 200.00 -Nz 100.00 -Ne -1.000000 -Nl AGT -Nw --- -Ma 13a -Md 1 -Ms 0 -Mt 800 -Is 0.0 -Id 1.0 -It cbr -Il 532 -If 0 -Ii 4 -Iv 30 -Pn cbr -Pi 4 -Pf 1 -Po 0 
r -t 1.405989667 -Hs 0 -Hd -2 -Ni 0 -Nx 0.00 -Ny 200.00 -Nz 100.00 -Ne -1.000000 -Nl MAC -Nw --- -Ma 0 -Md 0 -Ms 0 -Mt 0 
s -t 1.500000000 -Hs 0 -Hd -2 -Ni 0 -Nx 0.00 -Ny 200.00 -Nz 100.00 -Ne -1.000000 -Nl AGT -Nw --- -Ma 0 -Md 0 -Ms 0 -Mt 0 -Is 0.0 -Id 1.0 -It cbr -Il 512 -If 0 -Ii 5 -Iv 32 -Pn cbr -Pi 5 -Pf 0 -Po 0 
r -t 1.500000000 -Hs 0 -Hd -2 -Ni 0 -Nx 0.00 -Ny 200.00 -Nz 100.00 -Ne -1.000000 -Nl RTR -Nw --- -Ma 0 -Md 0 -Ms 0 -Mt 0 -Is 0.0 -Id 1.0 -It cbr -Il 512 -If 0 -Ii 5 -Iv 32 -Pn cbr -Pi 5 -Pf 0 -Po 0 
s -t 1.500000000 -Hs 0 -Hd 1 -Ni 0 -Nx 0.00 -Ny 200.00 -Nz 100.00 -Ne -1.000000 -Nl RTR -Nw --- -Ma 0 -Md 0 -Ms 0 -Mt 0 -Is 0.0 -Id 1.0 -It cbr -Il 532 -If 0 -Ii 5 -Iv 30 -Pn cbr -Pi 5 -Pf 0 -Po 0 
s -t 1.500095000 -Hs 0 -Hd -2 -Ni 0 -Nx 0.00 -Ny 200.00 -Nz 100.00 -Ne -1.000000 -Nl MAC -Nw --- -Ma 14ee -Md 1 -Ms 0 -Mt 0 
r -t 1.500448167 -Hs 1 -Hd -2 -Ni 1 -Nx 350.00 -Ny 200.00 -Nz 100.00 -Ne -1.000000 -Nl MAC -Nw --- -Ma 14ee -Md 1 -Ms 0 -Mt 0 
s -t 1.500458167 -Hs 1 -Hd -2 -Ni 1 -Nx 350.00 -Ny 200.00 -Nz 100.00 -Ne -1.000000 -Nl MAC -Nw --- -Ma 13b4 -Md 0 -Ms 0 -Mt 0 
r -t 1.500763333 -Hs 0 -Hd -2 -Ni 0 -Nx 0.00 -Ny 200.00 -Nz 100.00 -Ne -1.000000 -Nl MAC -Nw --- -Ma 13b4 -Md 0 -Ms 0 -Mt 0 
s -t 1.500773333 -Hs 0 -Hd 1 -Ni 0 -Nx 0.00 -Ny 200.00 -Nz 100.00 -Ne -1.000000 -Nl MAC -Nw --- -Ma 13a -Md 1 -Ms 0 -Mt 800 -Is 0.0 -Id 1.0 -It cbr -Il 590 -If 0 -Ii 5 -Iv 30 -Pn cbr -Pi 5 -Pf 0 -Po 0 
r -t 1.505494500 -Hs 1 -Hd 1 -Ni 1 -Nx 350.00 -Ny 200.00 -Nz 100.00 -Ne -1.000000 -Nl MAC -Nw --- -Ma 13a -Md 1 -Ms 0 -Mt 800 -Is 0.0 -Id 1.0 -It cbr -Il 532 -If 0 -Ii 5 -Iv 30 -Pn cbr -Pi 5 -Pf 1 -Po 0 
s -t 1.505504500 -Hs 1 -Hd -2 -Ni 1 -Nx 350.00 -Ny 200.00 -Nz 100.00 -Ne -1.000000 -Nl MAC -Nw --- -Ma 0 -Md 0 -Ms 0 -Mt 0 
r -t 1.505519500 -Hs 1 -Hd 1 -Ni 1 -Nx 350.00 -Ny 200.00 -Nz 100.00 -Ne -1.000000 -Nl AGT -Nw --- -Ma 13a -Md 1 -Ms 0 -Mt 800 -Is 0.0 -Id 1.0 -It cbr -Il 532 -If 0 -Ii 5 -Iv 30 -Pn cbr -Pi 5 -Pf 1 -Po 0 
r -t 1.505809667 -Hs 0 -Hd -2 -Ni 0 -Nx 0.00 -Ny 200.00 -Nz 100.00 -Ne -1.000000 -Nl MAC -Nw --- -Ma 0 -Md 0 -Ms 0 -Mt 0 
s -t 1.600000000 -Hs 0 -Hd -2 -Ni 0 -Nx 0.00 -Ny 200.00 -Nz 100.00 -Ne -1.000000 -Nl AGT -Nw --- -Ma 0 -Md 0 -Ms 0 -Mt 0 -Is 0.0 -Id 1.0 -It cbr -Il 512 -If 0 -Ii 6 -Iv 32 -Pn cbr -Pi 6 -Pf 0 -Po 0 
r -t 1.600000000 -Hs 0 -Hd -2 -Ni 0 -Nx 0.00 -Ny 200.00 -Nz 100.00 -Ne -1.000000 -Nl RTR -Nw --- -Ma 0 -Md 0 -Ms 0 -Mt 0 -Is 0.0 -Id 1.0 -It cbr -Il 512 -If 0 -Ii 6 -Iv 32 -Pn cbr -Pi 6 -Pf 0 -Po 0 
s -t 1.600000000 -Hs 0 -Hd 1 -Ni 0 -Nx 0.00 -Ny 200.00 -Nz 100.00 -Ne -1.000000 -Nl RTR -Nw --- -Ma 0 -Md 0 -Ms 0 -Mt 0 -Is 0.0 -Id 1.0 -It cbr -Il 532 -If 0 -Ii 6 -Iv 30 -Pn cbr -Pi 6 -Pf 0 -Po 0 
s -t 1.600515000 -Hs 0 -Hd -2 -Ni 0 -Nx 0.00 -Ny 200.00 -Nz 100.00 -Ne -1.000000 -Nl MAC -Nw --- -Ma 14ee -Md 1 -Ms 0 -Mt 0 
r -t 1.600868167 -Hs 1 -Hd -2 -Ni 1 -Nx 350.00 -Ny 200.00 -Nz 100.00 -Ne -1.000000 -Nl MAC -Nw --- -Ma 14ee -Md 1 -Ms 0 -Mt 0 
s -t 1.600878167 -Hs 1 -Hd -2 -Ni 1 -Nx 350.00 -Ny 200.00 -Nz 100.00 -Ne -1.000000 -Nl MAC -Nw --- -Ma 13b4 -Md 0 -Ms 0 -Mt 0 
r -t 1.601183333 -Hs 0 -Hd -2 -Ni 0 -Nx 0.00 -Ny 200.00 -Nz 100.00 -Ne -1.000000 -Nl MAC -Nw --- -Ma 13b4 -Md 0 -Ms 0 -Mt 0 
s -t 1.601193333 -Hs 0 -Hd 1 -Ni 0 -Nx 0.00 -Ny 200.00 -Nz 100.00 -Ne -1.000000 -Nl MAC -Nw --- -Ma 13a -Md 1 -Ms 0 -Mt 800 -Is 0.0 -Id 1.0 -It cbr -Il 590 -If 0 -Ii 6 -Iv 30 -Pn cbr -Pi 6 -Pf 0 -Po 0 
r -t 1.605914500 -Hs 1 -Hd 1 -Ni 1 -Nx 350.00 -Ny 200.00 -Nz 100.00 -Ne -1.000000 -Nl MAC -Nw --- -Ma 13a -Md 1 -Ms 0 -Mt 800 -Is 0.0 -Id 1.0 -It cbr -Il 532 -If 0 -Ii 6 -Iv 30 -Pn cbr -Pi 6 -Pf 1 -Po 0 
s -t 1.605924500 -Hs 1 -Hd -2 -Ni 1 -Nx 350.00 -Ny 200.00 -Nz 100.00 -Ne -1.000000 -Nl MAC -Nw --- -Ma 0 -Md 0 -Ms 0 -Mt 0 
r -t 1.605939500 -Hs 1 -Hd 1 -Ni 1 -Nx 350.00 -Ny 200.00 -Nz 100.00 -Ne -1.000000 -Nl AGT -Nw --- -Ma 13a -Md 1 -Ms 0 -Mt 800 -Is 0.0 -Id 1.0 -It cbr -Il 532 -If 0 -Ii 6 -Iv 30 -Pn cbr -Pi 6 -Pf 1 -Po 0 
r -t 1.606229667 -Hs 0 -Hd -2 -Ni 0 -Nx 0.00 -Ny 200.00 -Nz 100.00 -Ne -1.000000 -Nl MAC -Nw --- -Ma 0 -Md 0 -Ms 0 -Mt 0 
s -t 1.700000000 -Hs 0 -Hd -2 -Ni 0 -Nx 0.00 -Ny 200.00 -Nz 100.00 -Ne -1.000000 -Nl AGT -Nw --- -Ma 0 -Md 0 -Ms 0 -Mt 0 -Is 0.0 -Id 1.0 -It cbr -Il 512 -If 0 -Ii 7 -Iv 32 -Pn cbr -Pi 7 -Pf 0 -Po 0 
r -t 1.700000000 -Hs 0 -Hd -2 -Ni 0 -Nx 0.00 -Ny 200.00 -Nz 100.00 -Ne -1.000000 -Nl RTR -Nw --- -Ma 0 -Md 0 -Ms 0 -Mt 0 -Is 0.0 -Id 1.0 -It cbr -Il 512 -If 0 -Ii 7 -Iv 32 -Pn cbr -Pi 7 -Pf 0 -Po 0 
s -t 1.700000000 -Hs 0 -Hd 1 -Ni 0 -Nx 0.00 -Ny 200.00 -Nz 100.00 -Ne -1.000000 -Nl RTR -Nw --- -Ma 0 -Md 0 -Ms 0 -Mt 0 -Is 0.0 -Id 1.0 -It cbr -Il 532 -If 0 -Ii 7 -Iv 30 -Pn cbr -Pi 7 -Pf 0 -Po 0 
s -t 1.700655000 -Hs 0 -Hd -2 -Ni 0 -Nx 0.00 -Ny 200.00 -Nz 100.00 -Ne -1.000000 -Nl MAC -Nw --- -Ma 14ee -Md 1 -Ms 0 -Mt 0 
r -t 1.701008167 -Hs 1 -Hd -2 -Ni 1 -Nx 350.00 -Ny 200.00 -Nz 100.00 -Ne -1.000000 -Nl MAC -Nw --- -Ma 14ee -Md 1 -Ms 0 -Mt 0 
s -t 1.701018167 -Hs 1 -Hd -2 -Ni 1 -Nx 350.00 -Ny 200.00 -Nz 100.00 -Ne -1.000000 -Nl MAC -Nw --- -Ma 13b4 -Md 0 -Ms 0 -Mt 0 
r -t 1.701323333 -Hs 0 -Hd -2 -Ni 0 -Nx 0.00 -Ny 200.00 -Nz 100.00 -Ne -1.000000 -Nl MAC -Nw --- -Ma 13b4 -Md 0 -Ms 0 -Mt 0 
s -t 1.701333333 -Hs 0 -Hd 1 -Ni 0 -Nx 0.00 -Ny 200.00 -Nz 100.00 -Ne -1.000000 -Nl MAC -Nw --- -Ma 13a -Md 1 -Ms 0 -Mt 800 -Is 0.0 -Id 1.0 -It cbr -Il 590 -If 0 -Ii 7 -Iv 30 -Pn cbr -Pi 7 -Pf 0 -Po 0 
r -t 1.706054500 -Hs 1 -Hd 1 -Ni 1 -Nx 350.00 -Ny 200.00 -Nz 100.00 -Ne -1.000000 -Nl MAC -Nw --- -Ma 13a -Md 1 -Ms 0 -Mt 800 -Is 0.0 -Id 1.0 -It cbr -Il 532 -If 0 -Ii 7 -Iv 30 -Pn cbr -Pi 7 -Pf 1 -Po 0 
s -t 1.706064500 -Hs 1 -Hd -2 -Ni 1 -Nx 350.00 -Ny 200.00 -Nz 100.00 -Ne -1.000000 -Nl MAC -Nw --- -Ma 0 -Md 0 -Ms 0 -Mt 0 
r -t 1.706079500 -Hs 1 -Hd 1 -Ni 1 -Nx 350.00 -Ny 200.00 -Nz 100.00 -Ne -1.000000 -Nl AGT -Nw --- -Ma 13a -Md 1 -Ms 0 -Mt 800 -Is 0.0 -Id 1.0 -It cbr -Il 532 -If 0 -Ii 7 -Iv 30 -Pn cbr -Pi 7 -Pf 1 -Po 0 
r -t 1.706369667 -Hs 0 -Hd -2 -Ni 0 -Nx 0.00 -Ny 200.00 -Nz 100.00 -Ne -1.000000 -Nl MAC -Nw --- -Ma 0 -Md 0 -Ms 0 -Mt 0 
s -t 1.800000000 -Hs 0 -Hd -2 -Ni 0 -Nx 0.00 -Ny 200.00 -Nz 100.00 -Ne -1.000000 -Nl AGT -Nw --- -Ma 0 -Md 0 -Ms 0 -Mt 0 -Is 0.0 -Id 1.0 -It cbr -Il 512 -If 0 -Ii 8 -Iv 32 -Pn cbr -Pi 8 -Pf 0 -Po 0 
r -t 1.800000000 -Hs 0 -Hd -2 -Ni 0 -Nx 0.00 -Ny 200.00 -Nz 100.00 -Ne -1.000000 -Nl RTR -Nw --- -Ma 0 -Md 0 -Ms 0 -Mt 0 -Is 0.0 -Id 1.0 -It cbr -Il 512 -If 0 -Ii 8 -Iv 32 -Pn cbr -Pi 8 -Pf 0 -Po 0 
s -t 1.800000000 -Hs 0 -Hd 1 -Ni 0 -Nx 0.00 -Ny 200.00 -Nz 100.00 -Ne -1.000000 -Nl RTR -Nw --- -Ma 0 -Md 0 -Ms 0 -Mt 0 -Is 0.0 -Id 1.0 -It cbr -Il 532 -If 0 -Ii 8 -Iv 30 -Pn cbr -Pi 8 -Pf 0 -Po 0 
s -t 1.800615000 -Hs 0 -Hd -2 -Ni 0 -Nx 0.00 -Ny 200.00 -Nz 100.00 -Ne -1.000000 -Nl MAC -Nw --- -Ma 14ee -Md 1 -Ms 0 -Mt 0 
r -t 1.800968167 -Hs 1 -Hd -2 -Ni 1 -Nx 350.00 -Ny 200.00 -Nz 100.00 -Ne -1.000000 -Nl MAC -Nw --- -Ma 14ee -Md 1 -Ms 0 -Mt 0 
s -t 1.800978167 -Hs 1 -Hd -2 -Ni 1 -Nx 350.00 -Ny 200.00 -Nz 100.00 -Ne -1.000000 -Nl MAC -Nw --- -Ma 13b4 -Md 0 -Ms 0 -Mt 0 
r -t 1.801283333 -Hs 0 -Hd -2 -Ni 0 -Nx 0.00 -Ny 200.00 -Nz 100.00 -Ne -1.000000 -Nl MAC -Nw --- -Ma 13b4 -Md 0 -Ms 0 -Mt 0 
s -t 1.801293333 -Hs 0 -Hd 1 -Ni 0 -Nx 0.00 -Ny 200.00 -Nz 100.00 -Ne -1.000000 -Nl MAC -Nw --- -Ma 13a -Md 1 -Ms 0 -Mt 800 -Is 0.0 -Id 1.0 -It cbr -Il 590 -If 0 -Ii 8 -Iv 30 -Pn cbr -Pi 8 -Pf 0 -Po 0 
r -t 1.806014500 -Hs 1 -Hd 1 -Ni 1 -Nx 350.00 -Ny 200.00 -Nz 100.00 -Ne -1.000000 -Nl MAC -Nw --- -Ma 13a -Md 1 -Ms 0 -Mt 800 -Is 0.0 -Id 1.0 -It cbr -Il 532 -If 0 -Ii 8 -Iv 30 -Pn cbr -Pi 8 -Pf 1 -Po 0 
s -t 1.806024500 -Hs 1 -Hd -2 -Ni 1 -Nx 350.00 -Ny 200.00 -Nz 100.00 -Ne -1.000000 -Nl MAC -Nw --- -Ma 0 -Md 0 -Ms 0 -Mt 0 
r -t 1.806039500 -Hs 1 -Hd 1 -Ni 1 -Nx 350.00 -Ny 200.00 -Nz 100.00 -Ne -1.000000 -Nl AGT -Nw --- -Ma 13a -Md 1 -Ms 0 -Mt 800 -Is 0.0 -Id 1.0 -It cbr -Il 532 -If 0 -Ii 8 -Iv 30 -Pn cbr -Pi 8 -Pf 1 -Po 0 
r -t 1.806329667 -Hs 0 -Hd -2 -Ni 0 -Nx 0.00 -Ny 200.00 -Nz 100.00 -Ne -1.000000 -Nl MAC -Nw --- -Ma 0 -Md 0 -Ms 0 -Mt 0 
s -t 1.900000000 -Hs 0 -Hd -2 -Ni 0 -Nx 0.00 -Ny 200.00 -Nz 100.00 -Ne -1.000000 -Nl AGT -Nw --- -Ma 0 -Md 0 -Ms 0 -Mt 0 -Is 0.0 -Id 1.0 -It cbr -Il 512 -If 0 -Ii 9 -Iv 32 -Pn cbr -Pi 9 -Pf 0 -Po 0 
r -t 1.900000000 -Hs 0 -Hd -2 -Ni 0 -Nx 0.00 -Ny 200.00 -Nz 100.00 -Ne -1.000000 -Nl RTR -Nw --- -Ma 0 -Md 0 -Ms 0 -Mt 0 -Is 0.0 -Id 1.0 -It cbr -Il 512 -If 0 -Ii 9 -Iv 32 -Pn cbr -Pi 9 -Pf 0 -Po 0 
s -t 1.900000000 -Hs 0 -Hd 1 -Ni 0 -Nx 0.00 -Ny 200.00 -Nz 100.00 -Ne -1.000000 -Nl RTR -Nw --- -Ma 0 -Md 0 -Ms 0 -Mt 0 -Is 0.0 -Id 1.0 -It cbr -Il 532 -If 0 -Ii 9 -Iv 30 -Pn cbr -Pi 9 -Pf 0 -Po 0 
s -t 1.900115000 -Hs 0 -Hd -2 -Ni 0 -Nx 0.00 -Ny 200.00 -Nz 100.00 -Ne -1.000000 -Nl MAC -Nw --- -Ma 14ee -Md 1 -Ms 0 -Mt 0 
r -t 1.900468167 -Hs 1 -Hd -2 -Ni 1 -Nx 350.00 -Ny 200.00 -Nz 100.00 -Ne -1.000000 -Nl MAC -Nw --- -Ma 14ee -Md 1 -Ms 0 -Mt 0 
s -t 1.900478167 -Hs 1 -Hd -2 -Ni 1 -Nx 350.00 -Ny 200.00 -Nz 100.00 -Ne -1.000000 -Nl MAC -Nw --- -Ma 13b4 -Md 0 -Ms 0 -Mt 0 
r -t 1.900783333 -Hs 0 -Hd -2 -Ni 0 -Nx 0.00 -Ny 200.00 -Nz 100.00 -Ne -1.000000 -Nl MAC -Nw --- -Ma 13b4 -Md 0 -Ms 0 -Mt 0 
s -t 1.900793333 -Hs 0 -Hd 1 -Ni 0 -Nx 0.00 -Ny 200.00 -Nz 100.00 -Ne -1.000000 -Nl MAC -Nw --- -Ma 13a -Md 1 -Ms 0 -Mt 800 -Is 0.0 -Id 1.0 -It cbr -Il 590 -If 0 -Ii 9 -Iv 30 -Pn cbr -Pi 9 -Pf 0 -Po 0 
r -t 1.905514500 -Hs 1 -Hd 1 -Ni 1 -Nx 350.00 -Ny 200.00 -Nz 100.00 -Ne -1.000000 -Nl MAC -Nw --- -Ma 13a -Md 1 -Ms 0 -Mt 800 -Is 0.0 -Id 1.0 -It cbr -Il 532 -If 0 -Ii 9 -Iv 30 -Pn cbr -Pi 9 -Pf 1 -Po 0 
s -t 1.905524500 -Hs 1 -Hd -2 -Ni 1 -Nx 350.00 -Ny 200.00 -Nz 100.00 -Ne -1.000000 -Nl MAC -Nw --- -Ma 0 -Md 0 -Ms 0 -Mt 0 
r -t 1.905539500 -Hs 1 -Hd 1 -Ni 1 -Nx 350.00 -Ny 200.00 -Nz 100.00 -Ne -1.000000 -Nl AGT -Nw --- -Ma 13a -Md 1 -Ms 0 -Mt 800 -Is 0.0 -Id 1.0 -It cbr -Il 532 -If 0 -Ii 9 -Iv 30 -Pn cbr -Pi 9 -Pf 1 -Po 0 
r -t 1.905829667 -Hs 0 -Hd -2 -Ni 0 -Nx 0.00 -Ny 200.00 -Nz 100.00 -Ne -1.000000 -Nl MAC -Nw --- -Ma 0 -Md 0 -Ms 0 -Mt 0 
s -t 2.000000000 -Hs 0 -Hd -2 -Ni 0 -Nx 0.00 -Ny 200.00 -Nz 100.00 -Ne -1.000000 -Nl AGT -Nw --- -Ma 0 -Md 0 -Ms 0 -Mt 0 -Is 0.0 -Id 1.0 -It cbr -Il 512 -If 0 -Ii 10 -Iv 32 -Pn cbr -Pi 10 -Pf 0 -Po 0 
r -t 2.000000000 -Hs 0 -Hd -2 -Ni 0 -Nx 0.00 -Ny 200.00 -Nz 100.00 -Ne -1.000000 -Nl RTR -Nw --- -Ma 0 -Md 0 -Ms 0 -Mt 0 -Is 0.0 -Id 1.0 -It cbr -Il 512 -If 0 -Ii 10 -Iv 32 -Pn cbr -Pi 10 -Pf 0 -Po 0 
s -t 2.000000000 -Hs 0 -Hd 1 -Ni 0 -Nx 0.00 -Ny 200.00 -Nz 100.00 -Ne -1.000000 -Nl RTR -Nw --- -Ma 0 -Md 0 -Ms 0 -Mt 0 -Is 0.0 -Id 1.0 -It cbr -Il 532 -If 0 -Ii 10 -Iv 30 -Pn cbr -Pi 10 -Pf 0 -Po 0 
s -t 2.000435000 -Hs 0 -Hd -2 -Ni 0 -Nx 0.00 -Ny 200.00 -Nz 100.00 -Ne -1.000000 -Nl MAC -Nw --- -Ma 14ee -Md 1 -Ms 0 -Mt 0 
r -t 2.000788167 -Hs 1 -Hd -2 -Ni 1 -Nx 350.00 -Ny 200.00 -Nz 100.00 -Ne -1.000000 -Nl MAC -Nw --- -Ma 14ee -Md 1 -Ms 0 -Mt 0 
s -t 2.000798167 -Hs 1 -Hd -2 -Ni 1 -Nx 350.00 -Ny 200.00 -Nz 100.00 -Ne -1.000000 -Nl MAC -Nw --- -Ma 13b4 -Md 0 -Ms 0 -Mt 0 
r -t 2.001103333 -Hs 0 -Hd -2 -Ni 0 -Nx 0.00 -Ny 200.00 -Nz 100.00 -Ne -1.000000 -Nl MAC -Nw --- -Ma 13b4 -Md 0 -Ms 0 -Mt 0 
s -t 2.001113333 -Hs 0 -Hd 1 -Ni 0 -Nx 0.00 -Ny 200.00 -Nz 100.00 -Ne -1.000000 -Nl MAC -Nw --- -Ma 13a -Md 1 -Ms 0 -Mt 800 -Is 0.0 -Id 1.0 -It cbr -Il 590 -If 0 -Ii 10 -Iv 30 -Pn cbr -Pi 10 -Pf 0 -Po 0 
r -t 2.005834500 -Hs 1 -Hd 1 -Ni 1 -Nx 350.00 -Ny 200.00 -Nz 100.00 -Ne -1.000000 -Nl MAC -Nw --- -Ma 13a -Md 1 -Ms 0 -Mt 800 -Is 0.0 -Id 1.0 -It cbr -Il 532 -If 0 -Ii 10 -Iv 30 -Pn cbr -Pi 10 -Pf 1 -Po 0 
s -t 2.005844500 -Hs 1 -Hd -2 -Ni 1 -Nx 350.00 -Ny 200.00 -Nz 100.00 -Ne -1.000000 -Nl MAC -Nw --- -Ma 0 -Md 0 -Ms 0 -Mt 0 
r -t 2.005859500 -Hs 1 -Hd 1 -Ni 1 -Nx 350.00 -Ny 200.00 -Nz 100.00 -Ne -1.000000 -Nl AGT -Nw --- -Ma 13a -Md 1 -Ms 0 -Mt 800 -Is 0.0 -Id 1.0 -It cbr -Il 532 -If 0 -Ii 10 -Iv 30 -Pn cbr -Pi 10 -Pf 1 -Po 0 