n -t * -s 0  -x 0 -y 200 -Z 100 -z 30  -v circle -c black
n -t * -s 1  -x 350 -y 200 -Z 100 -z 30  -v circle -c black
n -t * -s 2  -x 700 -y 200 -Z 100 -z 30  -v circle -c black
n -t * -s 3  -x 350 -y 100 -Z 100 -z 30  -v circle -c black
V -t * -v 1.0a5 -a 0
W -t * -x 700 -y 700
A -t * -n 1 -p 0 -o 0x7fffffff -c 30 -a 1
A -t * -h 1 -m 1073741823 -s 0
+ -t 1.000000000 -s 0 -d -1 -p cbr -e 512 -c 2 -a 0 -i 0 -k AGT 
- -t 1.000000000 -s 0 -d -1 -p cbr -e 512 -c 2 -a 0 -i 0 -k AGT
h -t 1.000000000 -s 0 -d -1 -p cbr -e 512 -c 2 -a 0 -i 0 -k AGT
+ -t 1.000000000 -s 0 -d -1 -p AODV -e 48 -c 2 -a 0 -i 0 -k RTR 
- -t 1.000000000 -s 0 -d -1 -p AODV -e 48 -c 2 -a 0 -i 0 -k RTR
h -t 1.000000000 -s 0 -d -1 -p AODV -e 48 -c 2 -a 0 -i 0 -k RTR
+ -t 1.000535000 -s 0 -d -1 -p AODV -e 106 -c 2 -a 0 -i 0 -k MAC 
- -t 1.000535000 -s 0 -d -1 -p AODV -e 106 -c 2 -a 0 -i 0 -k MAC
h -t 1.000535000 -s 0 -d -1 -p AODV -e 106 -c 2 -a 0 -i 0 -k MAC
r -t 1.001384167 -s 1 -d -1 -p AODV -e 48 -c 2 -a 0 -i 0 -k MAC
r -t 1.001384213 -s 3 -d -1 -p AODV -e 48 -c 2 -a 0 -i 0 -k MAC
r -t 1.001409167 -s 1 -d -1 -p AODV -e 48 -c 2 -a 0 -i 0 -k RTR
+ -t 1.001409167 -s 1 -d 0 -p AODV -e 44 -c 2 -a 0 -i 0 -k RTR 
- -t 1.001409167 -s 1 -d 0 -p AODV -e 44 -c 2 -a 0 -i 0 -k RTR
h -t 1.001409167 -s 1 -d 0 -p AODV -e 44 -c 2 -a 0 -i 0 -k RTR
r -t 1.001409213 -s 3 -d -1 -p AODV -e 48 -c 2 -a 0 -i 0 -k RTR
+ -t 1.001551260 -s 3 -d -1 -p AODV -e 48 -c 2 -a 0 -i 0 -k RTR 
- -t 1.001551260 -s 3 -d -1 -p AODV -e 48 -c 2 -a 0 -i 0 -k RTR
h -t 1.001551260 -s 3 -d -1 -p AODV -e 48 -c 2 -a 0 -i 0 -k RTR
+ -t 1.001764167 -s 1 -d -1 -p ARP -e 86 -c 2 -a 0 -i 0 -k MAC 
- -t 1.001764167 -s 1 -d -1 -p ARP -e 86 -c 2 -a 0 -i 0 -k MAC
h -t 1.001764167 -s 1 -d -1 -p ARP -e 86 -c 2 -a 0 -i 0 -k MAC
r -t 1.002452500 -s 3 -d -1 -p ARP -e 28 -c 2 -a 0 -i 0 -k MAC
r -t 1.002453333 -s 0 -d -1 -p ARP -e 28 -c 2 -a 0 -i 0 -k MAC
r -t 1.002453333 -s 2 -d -1 -p ARP -e 28 -c 2 -a 0 -i 0 -k MAC
+ -t 1.002668333 -s 0 -d -1 -p RTS -e 44 -c 2 -a 0 -i 0 -k MAC 
- -t 1.002668333 -s 0 -d -1 -p RTS -e 44 -c 2 -a 0 -i 0 -k MAC
h -t 1.002668333 -s 0 -d -1 -p RTS -e 44 -c 2 -a 0 -i 0 -k MAC
r -t 1.003021500 -s 1 -d -1 -p RTS -e 44 -c 2 -a 0 -i 0 -k MAC
+ -t 1.003031500 -s 1 -d -1 -p CTS -e 38 -c 2 -a 0 -i 0 -k MAC 
- -t 1.003031500 -s 1 -d -1 -p CTS -e 38 -c 2 -a 0 -i 0 -k MAC
h -t 1.003031500 -s 1 -d -1 -p CTS -e 38 -c 2 -a 0 -i 0 -k MAC
r -t 1.003336667 -s 0 -d -1 -p CTS -e 38 -c 2 -a 0 -i 0 -k MAC
+ -t 1.003346667 -s 0 -d -1 -p ARP -e 86 -c 2 -a 0 -i 0 -k MAC 
- -t 1.003346667 -s 0 -d -1 -p ARP -e 86 -c 2 -a 0 -i 0 -k MAC
h -t 1.003346667 -s 0 -d -1 -p ARP -e 86 -c 2 -a 0 -i 0 -k MAC
r -t 1.004035833 -s 1 -d -1 -p ARP -e 28 -c 2 -a 0 -i 0 -k MAC
+ -t 1.004045833 -s 1 -d -1 -p ACK -e 38 -c 2 -a 0 -i 0 -k MAC 
- -t 1.004045833 -s 1 -d -1 -p ACK -e 38 -c 2 -a 0 -i 0 -k MAC
h -t 1.004045833 -s 1 -d -1 -p ACK -e 38 -c 2 -a 0 -i 0 -k MAC
r -t 1.004351000 -s 0 -d -1 -p ACK -e 38 -c 2 -a 0 -i 0 -k MAC
+ -t 1.004440167 -s 3 -d -1 -p AODV -e 106 -c 2 -a 0 -i 0 -k MAC 
- -t 1.004440167 -s 3 -d -1 -p AODV -e 106 -c 2 -a 0 -i 0 -k MAC
h -t 1.004440167 -s 3 -d -1 -p AODV -e 106 -c 2 -a 0 -i 0 -k MAC
r -t 1.005288500 -s 1 -d -1 -p AODV -e 48 -c 2 -a 0 -i 0 -k MAC
r -t 1.005289380 -s 0 -d -1 -p AODV -e 48 -c 2 -a 0 -i 0 -k MAC
r -t 1.005289380 -s 2 -d -1 -p AODV -e 48 -c 2 -a 0 -i 0 -k MAC
r -t 1.005313500 -s 1 -d -1 -p AODV -e 48 -c 2 -a 0 -i 0 -k RTR
r -t 1.005314380 -s 0 -d -1 -p AODV -e 48 -c 2 -a 0 -i 0 -k RTR
r -t 1.005314380 -s 2 -d -1 -p AODV -e 48 -c 2 -a 0 -i 0 -k RTR
+ -t 1.005498500 -s 1 -d -1 -p RTS -e 44 -c 2 -a 0 -i 0 -k MAC 
- -t 1.005498500 -s 1 -d -1 -p RTS -e 44 -c 2 -a 0 -i 0 -k MAC
h -t 1.005498500 -s 1 -d -1 -p RTS -e 44 -c 2 -a 0 -i 0 -k MAC
r -t 1.005851667 -s 0 -d -1 -p RTS -e 44 -c 2 -a 0 -i 0 -k MAC
+ -t 1.005861667 -s 0 -d -1 -p CTS -e 38 -c 2 -a 0 -i 0 -k MAC 
- -t 1.005861667 -s 0 -d -1 -p CTS -e 38 -c 2 -a 0 -i 0 -k MAC
h -t 1.005861667 -s 0 -d -1 -p CTS -e 38 -c 2 -a 0 -i 0 -k MAC
r -t 1.006166833 -s 1 -d -1 -p CTS -e 38 -c 2 -a 0 -i 0 -k MAC
+ -t 1.006176833 -s 1 -d 0 -p AODV -e 102 -c 2 -a 0 -i 0 -k MAC 
- -t 1.006176833 -s 1 -d 0 -p AODV -e 102 -c 2 -a 0 -i 0 -k MAC
h -t 1.006176833 -s 1 -d 0 -p AODV -e 102 -c 2 -a 0 -i 0 -k MAC
r -t 1.006994000 -s 0 -d 0 -p AODV -e 44 -c 2 -a 0 -i 0 -k MAC
+ -t 1.007004000 -s 0 -d -1 -p ACK -e 38 -c 2 -a 0 -i 0 -k MAC 
- -t 1.007004000 -s 0 -d -1 -p ACK -e 38 -c 2 -a 0 -i 0 -k MAC
h -t 1.007004000 -s 0 -d -1 -p ACK -e 38 -c 2 -a 0 -i 0 -k MAC
+ -t 1.007019000 -s 0 -d 1 -p cbr -e 532 -c 2 -a 0 -i 0 -k RTR 
- -t 1.007019000 -s 0 -d 1 -p cbr -e 532 -c 2 -a 0 -i 0 -k RTR
h -t 1.007019000 -s 0 -d 1 -p cbr -e 532 -c 2 -a 0 -i 0 -k RTR
r -t 1.007309167 -s 1 -d -1 -p ACK -e 38 -c 2 -a 0 -i 0 -k MAC
+ -t 1.007398000 -s 0 -d -1 -p RTS -e 44 -c 2 -a 0 -i 0 -k MAC 
- -t 1.007398000 -s 0 -d -1 -p RTS -e 44 -c 2 -a 0 -i 0 -k MAC
h -t 1.007398000 -s 0 -d -1 -p RTS -e 44 -c 2 -a 0 -i 0 -k MAC
r -t 1.007751167 -s 1 -d -1 -p RTS -e 44 -c 2 -a 0 -i 0 -k MAC
+ -t 1.007761167 -s 1 -d -1 -p CTS -e 38 -c 2 -a 0 -i 0 -k MAC 
- -t 1.007761167 -s 1 -d -1 -p CTS -e 38 -c 2 -a 0 -i 0 -k MAC
h -t 1.007761167 -s 1 -d -1 -p CTS -e 38 -c 2 -a 0 -i 0 -k MAC
r -t 1.008066333 -s 0 -d -1 -p CTS -e 38 -c 2 -a 0 -i 0 -k MAC
+ -t 1.008076333 -s 0 -d 1 -p cbr -e 590 -c 2 -a 0 -i 0 -k MAC 
- -t 1.008076333 -s 0 -d 1 -p cbr -e 590 -c 2 -a 0 -i 0 -k MAC
h -t 1.008076333 -s 0 -d 1 -p cbr -e 590 -c 2 -a 0 -i 0 -k MAC
+ -t 1.008405171 -s 2 -d -1 -p AODV -e 48 -c 2 -a 0 -i 0 -k RTR 
- -t 1.008405171 -s 2 -d -1 -p AODV -e 48 -c 2 -a 0 -i 0 -k RTR
h -t 1.008405171 -s 2 -d -1 -p AODV -e 48 -c 2 -a 0 -i 0 -k RTR
r -t 1.012797500 -s 1 -d 1 -p cbr -e 532 -c 2 -a 0 -i 0 -k MAC
+ -t 1.012807500 -s 1 -d -1 -p ACK -e 38 -c 2 -a 0 -i 0 -k MAC 
- -t 1.012807500 -s 1 -d -1 -p ACK -e 38 -c 2 -a 0 -i 0 -k MAC
h -t 1.012807500 -s 1 -d -1 -p ACK -e 38 -c 2 -a 0 -i 0 -k MAC
r -t 1.012822500 -s 1 -d 1 -p cbr -e 532 -c 2 -a 0 -i 0 -k AGT
r -t 1.013112667 -s 0 -d -1 -p ACK -e 38 -c 2 -a 0 -i 0 -k MAC
+ -t 1.013202667 -s 2 -d -1 -p AODV -e 106 -c 2 -a 0 -i 0 -k MAC 
- -t 1.013202667 -s 2 -d -1 -p AODV -e 106 -c 2 -a 0 -i 0 -k MAC
h -t 1.013202667 -s 2 -d -1 -p AODV -e 106 -c 2 -a 0 -i 0 -k MAC
r -t 1.014051833 -s 1 -d -1 -p AODV -e 48 -c 2 -a 0 -i 0 -k MAC
r -t 1.014051880 -s 3 -d -1 -p AODV -e 48 -c 2 -a 0 -i 0 -k MAC
r -t 1.014076833 -s 1 -d -1 -p AODV -e 48 -c 2 -a 0 -i 0 -k RTR
r -t 1.014076880 -s 3 -d -1 -p AODV -e 48 -c 2 -a 0 -i 0 -k RTR
+ -t 1.100000000 -s 0 -d -1 -p cbr -e 512 -c 2 -a 0 -i 1 -k AGT 
- -t 1.100000000 -s 0 -d -1 -p cbr -e 512 -c 2 -a 0 -i 1 -k AGT
h -t 1.100000000 -s 0 -d -1 -p cbr -e 512 -c 2 -a 0 -i 1 -k AGT
+ -t 1.100000000 -s 0 -d 1 -p cbr -e 532 -c 2 -a 0 -i 1 -k RTR 
- -t 1.100000000 -s 0 -d 1 -p cbr -e 532 -c 2 -a 0 -i 1 -k RTR
h -t 1.100000000 -s 0 -d 1 -p cbr -e 532 -c 2 -a 0 -i 1 -k RTR
+ -t 1.100435000 -s 0 -d -1 -p RTS -e 44 -c 2 -a 0 -i 0 -k MAC 
- -t 1.100435000 -s 0 -d -1 -p RTS -e 44 -c 2 -a 0 -i 0 -k MAC
h -t 1.100435000 -s 0 -d -1 -p RTS -e 44 -c 2 -a 0 -i 0 -k MAC
r -t 1.100788167 -s 1 -d -1 -p RTS -e 44 -c 2 -a 0 -i 0 -k MAC
+ -t 1.100798167 -s 1 -d -1 -p CTS -e 38 -c 2 -a 0 -i 0 -k MAC 
- -t 1.100798167 -s 1 -d -1 -p CTS -e 38 -c 2 -a 0 -i 0 -k MAC
h -t 1.100798167 -s 1 -d -1 -p CTS -e 38 -c 2 -a 0 -i 0 -k MAC
r -t 1.101103333 -s 0 -d -1 -p CTS -e 38 -c 2 -a 0 -i 0 -k MAC
+ -t 1.101113333 -s 0 -d 1 -p cbr -e 590 -c 2 -a 0 -i 1 -k MAC 
- -t 1.101113333 -s 0 -d 1 -p cbr -e 590 -c 2 -a 0 -i 1 -k MAC
h -t 1.101113333 -s 0 -d 1 -p cbr -e 590 -c 2 -a 0 -i 1 -k MAC
r -t 1.105834500 -s 1 -d 1 -p cbr -e 532 -c 2 -a 0 -i 1 -k MAC
+ -t 1.105844500 -s 1 -d -1 -p ACK -e 38 -c 2 -a 0 -i 0 -k MAC 
- -t 1.105844500 -s 1 -d -1 -p ACK -e 38 -c 2 -a 0 -i 0 -k MAC
h -t 1.105844500 -s 1 -d -1 -p ACK -e 38 -c 2 -a 0 -i 0 -k MAC
r -t 1.105859500 -s 1 -d 1 -p cbr -e 532 -c 2 -a 0 -i 1 -k AGT
r -t 1.106149667 -s 0 -d -1 -p ACK -e 38 -c 2 -a 0 -i 0 -k MAC
+ -t 1.200000000 -s 0 -d -1 -p cbr -e 512 -c 2 -a 0 -i 2 -k AGT 
- -t 1.200000000 -s 0 -d -1 -p cbr -e 512 -c 2 -a 0 -i 2 -k AGT
h -t 1.200000000 -s 0 -d -1 -p cbr -e 512 -c 2 -a 0 -i 2 -k AGT
+ -t 1.200000000 -s 0 -d 1 -p cbr -e 532 -c 2 -a 0 -i 2 -k RTR 
- -t 1.200000000 -s 0 -d 1 -p cbr -e 532 -c 2 -a 0 -i 2 -k RTR
h -t 1.200000000 -s 0 -d 1 -p cbr -e 532 -c 2 -a 0 -i 2 -k RTR
+ -t 1.200235000 -s 0 -d -1 -p RTS -e 44 -c 2 -a 0 -i 0 -k MAC 
- -t 1.200235000 -s 0 -d -1 -p RTS -e 44 -c 2 -a 0 -i 0 -k MAC
h -t 1.200235000 -s 0 -d -1 -p RTS -e 44 -c 2 -a 0 -i 0 -k MAC
r -t 1.200588167 -s 1 -d -1 -p RTS -e 44 -c 2 -a 0 -i 0 -k MAC
+ -t 1.200598167 -s 1 -d -1 -p CTS -e 38 -c 2 -a 0 -i 0 -k MAC 
- -t 1.200598167 -s 1 -d -1 -p CTS -e 38 -c 2 -a 0 -i 0 -k MAC
h -t 1.200598167 -s 1 -d -1 -p CTS -e 38 -c 2 -a 0 -i 0 -k MAC
r -t 1.200903333 -s 0 -d -1 -p CTS -e 38 -c 2 -a 0 -i 0 -k MAC
+ -t 1.200913333 -s 0 -d 1 -p cbr -e 590 -c 2 -a 0 -i 2 -k MAC 
- -t 1.200913333 -s 0 -d 1 -p cbr -e 590 -c 2 -a 0 -i 2 -k MAC
h -t 1.200913333 -s 0 -d 1 -p cbr -e 590 -c 2 -a 0 -i 2 -k MAC
r -t 1.205634500 -s 1 -d 1 -p cbr -e 532 -c 2 -a 0 -i 2 -k MAC
+ -t 1.205644500 -s 1 -d -1 -p ACK -e 38 -c 2 -a 0 -i 0 -k MAC 
- -t 1.205644500 -s 1 -d -1 -p ACK -e 38 -c 2 -a 0 -i 0 -k MAC
h -t 1.205644500 -s 1 -d -1 -p ACK -e 38 -c 2 -a 0 -i 0 -k MAC
r -t 1.205659500 -s 1 -d 1 -p cbr -e 532 -c 2 -a 0 -i 2 -k AGT
r -t 1.205949667 -s 0 -d -1 -p ACK -e 38 -c 2 -a 0 -i 0 -k MAC
+ -t 1.300000000 -s 0 -d -1 -p cbr -e 512 -c 2 -a 0 -i 3 -k AGT 
- -t 1.300000000 -s 0 -d -1 -p cbr -e 512 -c 2 -a 0 -i 3 -k AGT
h -t 1.300000000 -s 0 -d -1 -p cbr -e 512 -c 2 -a 0 -i 3 -k AGT
+ -t 1.300000000 -s 0 -d 1 -p cbr -e 532 -c 2 -a 0 -i 3 -k RTR 
- -t 1.300000000 -s 0 -d 1 -p cbr -e 532 -c 2 -a 0 -i 3 -k RTR
h -t 1.300000000 -s 0 -d 1 -p cbr -e 532 -c 2 -a 0 -i 3 -k RTR
+ -t 1.300415000 -s 0 -d -1 -p RTS -e 44 -c 2 -a 0 -i 0 -k MAC 
- -t 1.300415000 -s 0 -d -1 -p RTS -e 44 -c 2 -a 0 -i 0 -k MAC
h -t 1.300415000 -s 0 -d -1 -p RTS -e 44 -c 2 -a 0 -i 0 -k MAC
r -t 1.300768167 -s 1 -d -1 -p RTS -e 44 -c 2 -a 0 -i 0 -k MAC
+ -t 1.300778167 -s 1 -d -1 -p CTS -e 38 -c 2 -a 0 -i 0 -k MAC 
- -t 1.300778167 -s 1 -d -1 -p CTS -e 38 -c 2 -a 0 -i 0 -k MAC
h -t 1.300778167 -s 1 -d -1 -p CTS -e 38 -c 2 -a 0 -i 0 -k MAC
r -t 1.301083333 -s 0 -d -1 -p CTS -e 38 -c 2 -a 0 -i 0 -k MAC
+ -t 1.301093333 -s 0 -d 1 -p cbr -e 590 -c 2 -a 0 -i 3 -k MAC 
- -t 1.301093333 -s 0 -d 1 -p cbr -e 590 -c 2 -a 0 -i 3 -k MAC
h -t 1.301093333 -s 0 -d 1 -p cbr -e 590 -c 2 -a 0 -i 3 -k MAC
r -t 1.305814500 -s 1 -d 1 -p cbr -e 532 -c 2 -a 0 -i 3 -k MAC
+ -t 1.305824500 -s 1 -d -1 -p ACK -e 38 -c 2 -a 0 -i 0 -k MAC 
- -t 1.305824500 -s 1 -d -1 -p ACK -e 38 -c 2 -a 0 -i 0 -k MAC
h -t 1.305824500 -s 1 -d -1 -p ACK -e 38 -c 2 -a 0 -i 0 -k MAC
r -t 1.305839500 -s 1 -d 1 -p cbr -e 532 -c 2 -a 0 -i 3 -k AGT
r -t 1.306129667 -s 0 -d -1 -p ACK -e 38 -c 2 -a 0 -i 0 -k MAC
+ -t 1.400000000 -s 0 -d -1 -p cbr -e 512 -c 2 -a 0 -i 4 -k AGT 
- -t 1.400000000 -s 0 -d -1 -p cbr -e 512 -c 2 -a 0 -i 4 -k AGT
h -t 1.400000000 -s 0 -d -1 -p cbr -e 512 -c 2 -a 0 -i 4 -k AGT
+ -t 1.400000000 -s 0 -d 1 -p cbr -e 532 -c 2 -a 0 -i 4 -k RTR 
- -t 1.400000000 -s 0 -d 1 -p cbr -e 532 -c 2 -a 0 -i 4 -k RTR
h -t 1.400000000 -s 0 -d 1 -p cbr -e 532 -c 2 -a 0 -i 4 -k RTR
+ -t 1.400275000 -s 0 -d -1 -p RTS -e 44 -c 2 -a 0 -i 0 -k MAC 
- -t 1.400275000 -s 0 -d -1 -p RTS -e 44 -c 2 -a 0 -i 0 -k MAC
h -t 1.400275000 -s 0 -d -1 -p RTS -e 44 -c 2 -a 0 -i 0 -k MAC
r -t 1.400628167 -s 1 -d -1 -p RTS -e 44 -c 2 -a 0 -i 0 -k MAC
+ -t 1.400638167 -s 1 -d -1 -p CTS -e 38 -c 2 -a 0 -i 0 -k MAC 
- -t 1.400638167 -s 1 -d -1 -p CTS -e 38 -c 2 -a 0 -i 0 -k MAC
h -t 1.400638167 -s 1 -d -1 -p CTS -e 38 -c 2 -a 0 -i 0 -k MAC
r -t 1.400943333 -s 0 -d -1 -p CTS -e 38 -c 2 -a 0 -i 0 -k MAC
+ -t 1.400953333 -s 0 -d 1 -p cbr -e 590 -c 2 -a 0 -i 4 -k MAC 
- -t 1.400953333 -s 0 -d 1 -p cbr -e 590 -c 2 -a 0 -i 4 -k MAC
h -t 1.400953333 -s 0 -d 1 -p cbr -e 590 -c 2 -a 0 -i 4 -k MAC
r -t 1.405674500 -s 1 -d 1 -p cbr -e 532 -c 2 -a 0 -i 4 -k MAC
+ -t 1.405684500 -s 1 -d -1 -p ACK -e 38 -c 2 -a 0 -i 0 -k MAC 
- -t 1.405684500 -s 1 -d -1 -p ACK -e 38 -c 2 -a 0 -i 0 -k MAC
h -t 1.405684500 -s 1 -d -1 -p ACK -e 38 -c 2 -a 0 -i 0 -k MAC
r -t 1.405699500 -s 1 -d 1 -p cbr -e 532 -c 2 -a 0 -i 4 -k AGT
r -t 1.405989667 -s 0 -d -1 -p ACK -e 38 -c 2 -a 0 -i 0 -k MAC
+ -t 1.500000000 -s 0 -d -1 -p cbr -e 512 -c 2 -a 0 -i 5 -k AGT 
- -t 1.500000000 -s 0 -d -1 -p cbr -e 512 -c 2 -a 0 -i 5 -k AGT
h -t 1.500000000 -s 0 -d -1 -p cbr -e 512 -c 2 -a 0 -i 5 -k AGT
+ -t 1.500000000 -s 0 -d 1 -p cbr -e 532 -c 2 -a 0 -i 5 -k RTR 
- -t 1.500000000 -s 0 -d 1 -p cbr -e 532 -c 2 -a 0 -i 5 -k RTR
h -t 1.500000000 -s 0 -d 1 -p cbr -e 532 -c 2 -a 0 -i 5 -k RTR
+ -t 1.500095000 -s 0 -d -1 -p RTS -e 44 -c 2 -a 0 -i 0 -k MAC 
- -t 1.500095000 -s 0 -d -1 -p RTS -e 44 -c 2 -a 0 -i 0 -k MAC
h -t 1.500095000 -s 0 -d -1 -p RTS -e 44 -c 2 -a 0 -i 0 -k MAC
r -t 1.500448167 -s 1 -d -1 -p RTS -e 44 -c 2 -a 0 -i 0 -k MAC
+ -t 1.500458167 -s 1 -d -1 -p CTS -e 38 -c 2 -a 0 -i 0 -k MAC 
- -t 1.500458167 -s 1 -d -1 -p CTS -e 38 -c 2 -a 0 -i 0 -k MAC
h -t 1.500458167 -s 1 -d -1 -p CTS -e 38 -c 2 -a 0 -i 0 -k MAC
r -t 1.500763333 -s 0 -d -1 -p CTS -e 38 -c 2 -a 0 -i 0 -k MAC
+ -t 1.500773333 -s 0 -d 1 -p cbr -e 590 -c 2 -a 0 -i 5 -k MAC 
- -t 1.500773333 -s 0 -d 1 -p cbr -e 590 -c 2 -a 0 -i 5 -k MAC
h -t 1.500773333 -s 0 -d 1 -p cbr -e 590 -c 2 -a 0 -i 5 -k MAC
r -t 1.505494500 -s 1 -d 1 -p cbr -e 532 -c 2 -a 0 -i 5 -k MAC
+ -t 1.505504500 -s 1 -d -1 -p ACK -e 38 -c 2 -a 0 -i 0 -k MAC 
- -t 1.505504500 -s 1 -d -1 -p ACK -e 38 -c 2 -a 0 -i 0 -k MAC
h -t 1.505504500 -s 1 -d -1 -p ACK -e 38 -c 2 -a 0 -i 0 -k MAC
r -t 1.505519500 -s 1 -d 1 -p cbr -e 532 -c 2 -a 0 -i 5 -k AGT
r -t 1.505809667 -s 0 -d -1 -p ACK -e 38 -c 2 -a 0 -i 0 -k MAC
+ -t 1.600000000 -s 0 -d -1 -p cbr -e 512 -c 2 -a 0 -i 6 -k AGT 
- -t 1.600000000 -s 0 -d -1 -p cbr -e 512 -c 2 -a 0 -i 6 -k AGT
h -t 1.600000000 -s 0 -d -1 -p cbr -e 512 -c 2 -a 0 -i 6 -k AGT
+ -t 1.600000000 -s 0 -d 1 -p cbr -e 532 -c 2 -a 0 -i 6 -k RTR 
- -t 1.600000000 -s 0 -d 1 -p cbr -e 532 -c 2 -a 0 -i 6 -k RTR
h -t 1.600000000 -s 0 -d 1 -p cbr -e 532 -c 2 -a 0 -i 6 -k RTR
+ -t 1.600515000 -s 0 -d -1 -p RTS -e 44 -c 2 -a 0 -i 0 -k MAC 
- -t 1.600515000 -s 0 -d -1 -p RTS -e 44 -c 2 -a 0 -i 0 -k MAC
h -t 1.600515000 -s 0 -d -1 -p RTS -e 44 -c 2 -a 0 -i 0 -k MAC
r -t 1.600868167 -s 1 -d -1 -p RTS -e 44 -c 2 -a 0 -i 0 -k MAC
+ -t 1.600878167 -s 1 -d -1 -p CTS -e 38 -c 2 -a 0 -i 0 -k MAC 
- -t 1.600878167 -s 1 -d -1 -p CTS -e 38 -c 2 -a 0 -i 0 -k MAC
h -t 1.600878167 -s 1 -d -1 -p CTS -e 38 -c 2 -a 0 -i 0 -k MAC
r -t 1.601183333 -s 0 -d -1 -p CTS -e 38 -c 2 -a 0 -i 0 -k MAC
+ -t 1.601193333 -s 0 -d 1 -p cbr -e 590 -c 2 -a 0 -i 6 -k MAC 
- -t 1.601193333 -s 0 -d 1 -p cbr -e 590 -c 2 -a 0 -i 6 -k MAC
h -t 1.601193333 -s 0 -d 1 -p cbr -e 590 -c 2 -a 0 -i 6 -k MAC
r -t 1.605914500 -s 1 -d 1 -p cbr -e 532 -c 2 -a 0 -i 6 -k MAC
+ -t 1.605924500 -s 1 -d -1 -p ACK -e 38 -c 2 -a 0 -i 0 -k MAC 
- -t 1.605924500 -s 1 -d -1 -p ACK -e 38 -c 2 -a 0 -i 0 -k MAC
h -t 1.605924500 -s 1 -d -1 -p ACK -e 38 -c 2 -a 0 -i 0 -k MAC
r -t 1.605939500 -s 1 -d 1 -p cbr -e 532 -c 2 -a 0 -i 6 -k AGT
r -t 1.606229667 -s 0 -d -1 -p ACK -e 38 -c 2 -a 0 -i 0 -k MAC
+ -t 1.700000000 -s 0 -d -1 -p cbr -e 512 -c 2 -a 0 -i 7 -k AGT 
- -t 1.700000000 -s 0 -d -1 -p cbr -e 512 -c 2 -a 0 -i 7 -k AGT
h -t 1.700000000 -s 0 -d -1 -p cbr -e 512 -c 2 -a 0 -i 7 -k AGT
+ -t 1.700000000 -s 0 -d 1 -p cbr -e 532 -c 2 -a 0 -i 7 -k RTR 
- -t 1.700000000 -s 0 -d 1 -p cbr -e 532 -c 2 -a 0 -i 7 -k RTR
h -t 1.700000000 -s 0 -d 1 -p cbr -e 532 -c 2 -a 0 -i 7 -k RTR
+ -t 1.700655000 -s 0 -d -1 -p RTS -e 44 -c 2 -a 0 -i 0 -k MAC 
- -t 1.700655000 -s 0 -d -1 -p RTS -e 44 -c 2 -a 0 -i 0 -k MAC
h -t 1.700655000 -s 0 -d -1 -p RTS -e 44 -c 2 -a 0 -i 0 -k MAC
r -t 1.701008167 -s 1 -d -1 -p RTS -e 44 -c 2 -a 0 -i 0 -k MAC
+ -t 1.701018167 -s 1 -d -1 -p CTS -e 38 -c 2 -a 0 -i 0 -k MAC 
- -t 1.701018167 -s 1 -d -1 -p CTS -e 38 -c 2 -a 0 -i 0 -k MAC
h -t 1.701018167 -s 1 -d -1 -p CTS -e 38 -c 2 -a 0 -i 0 -k MAC
r -t 1.701323333 -s 0 -d -1 -p CTS -e 38 -c 2 -a 0 -i 0 -k MAC
+ -t 1.701333333 -s 0 -d 1 -p cbr -e 590 -c 2 -a 0 -i 7 -k MAC 
- -t 1.701333333 -s 0 -d 1 -p cbr -e 590 -c 2 -a 0 -i 7 -k MAC
h -t 1.701333333 -s 0 -d 1 -p cbr -e 590 -c 2 -a 0 -i 7 -k MAC
r -t 1.706054500 -s 1 -d 1 -p cbr -e 532 -c 2 -a 0 -i 7 -k MAC
+ -t 1.706064500 -s 1 -d -1 -p ACK -e 38 -c 2 -a 0 -i 0 -k MAC 
- -t 1.706064500 -s 1 -d -1 -p ACK -e 38 -c 2 -a 0 -i 0 -k MAC
h -t 1.706064500 -s 1 -d -1 -p ACK -e 38 -c 2 -a 0 -i 0 -k MAC
r -t 1.706079500 -s 1 -d 1 -p cbr -e 532 -c 2 -a 0 -i 7 -k AGT
r -t 1.706369667 -s 0 -d -1 -p ACK -e 38 -c 2 -a 0 -i 0 -k MAC
+ -t 1.800000000 -s 0 -d -1 -p cbr -e 512 -c 2 -a 0 -i 8 -k AGT 
- -t 1.800000000 -s 0 -d -1 -p cbr -e 512 -c 2 -a 0 -i 8 -k AGT
h -t 1.800000000 -s 0 -d -1 -p cbr -e 512 -c 2 -a 0 -i 8 -k AGT
+ -t 1.800000000 -s 0 -d 1 -p cbr -e 532 -c 2 -a 0 -i 8 -k RTR 
- -t 1.800000000 -s 0 -d 1 -p cbr -e 532 -c 2 -a 0 -i 8 -k RTR
h -t 1.800000000 -s 0 -d 1 -p cbr -e 532 -c 2 -a 0 -i 8 -k RTR
+ -t 1.800615000 -s 0 -d -1 -p RTS -e 44 -c 2 -a 0 -i 0 -k MAC 
- -t 1.800615000 -s 0 -d -1 -p RTS -e 44 -c 2 -a 0 -i 0 -k MAC
h -t 1.800615000 -s 0 -d -1 -p RTS -e 44 -c 2 -a 0 -i 0 -k MAC
r -t 1.800968167 -s 1 -d -1 -p RTS -e 44 -c 2 -a 0 -i 0 -k MAC
+ -t 1.800978167 -s 1 -d -1 -p CTS -e 38 -c 2 -a 0 -i 0 -k MAC 
- -t 1.800978167 -s 1 -d -1 -p CTS -e 38 -c 2 -a 0 -i 0 -k MAC
h -t 1.800978167 -s 1 -d -1 -p CTS -e 38 -c 2 -a 0 -i 0 -k MAC
r -t 1.801283333 -s 0 -d -1 -p CTS -e 38 -c 2 -a 0 -i 0 -k MAC
+ -t 1.801293333 -s 0 -d 1 -p cbr -e 590 -c 2 -a 0 -i 8 -k MAC 
- -t 1.801293333 -s 0 -d 1 -p cbr -e 590 -c 2 -a 0 -i 8 -k MAC
h -t 1.801293333 -s 0 -d 1 -p cbr -e 590 -c 2 -a 0 -i 8 -k MAC
r -t 1.806014500 -s 1 -d 1 -p cbr -e 532 -c 2 -a 0 -i 8 -k MAC
+ -t 1.806024500 -s 1 -d -1 -p ACK -e 38 -c 2 -a 0 -i 0 -k MAC 
- -t 1.806024500 -s 1 -d -1 -p ACK -e 38 -c 2 -a 0 -i 0 -k MAC
h -t 1.806024500 -s 1 -d -1 -p ACK -e 38 -c 2 -a 0 -i 0 -k MAC
r -t 1.806039500 -s 1 -d 1 -p cbr -e 532 -c 2 -a 0 -i 8 -k AGT
r -t 1.806329667 -s 0 -d -1 -p ACK -e 38 -c 2 -a 0 -i 0 -k MAC
+ -t 1.900000000 -s 0 -d -1 -p cbr -e 512 -c 2 -a 0 -i 9 -k AGT 
- -t 1.900000000 -s 0 -d -1 -p cbr -e 512 -c 2 -a 0 -i 9 -k AGT
h -t 1.900000000 -s 0 -d -1 -p cbr -e 512 -c 2 -a 0 -i 9 -k AGT
+ -t 1.900000000 -s 0 -d 1 -p cbr -e 532 -c 2 -a 0 -i 9 -k RTR 
- -t 1.900000000 -s 0 -d 1 -p cbr -e 532 -c 2 -a 0 -i 9 -k RTR
h -t 1.900000000 -s 0 -d 1 -p cbr -e 532 -c 2 -a 0 -i 9 -k RTR
+ -t 1.900115000 -s 0 -d -1 -p RTS -e 44 -c 2 -a 0 -i 0 -k MAC 
- -t 1.900115000 -s 0 -d -1 -p RTS -e 44 -c 2 -a 0 -i 0 -k MAC
h -t 1.900115000 -s 0 -d -1 -p RTS -e 44 -c 2 -a 0 -i 0 -k MAC
r -t 1.900468167 -s 1 -d -1 -p RTS -e 44 -c 2 -a 0 -i 0 -k MAC
+ -t 1.900478167 -s 1 -d -1 -p CTS -e 38 -c 2 -a 0 -i 0 -k MAC 
- -t 1.900478167 -s 1 -d -1 -p CTS -e 38 -c 2 -a 0 -i 0 -k MAC
h -t 1.900478167 -s 1 -d -1 -p CTS -e 38 -c 2 -a 0 -i 0 -k MAC
r -t 1.900783333 -s 0 -d -1 -p CTS -e 38 -c 2 -a 0 -i 0 -k MAC
+ -t 1.900793333 -s 0 -d 1 -p cbr -e 590 -c 2 -a 0 -i 9 -k MAC 
- -t 1.900793333 -s 0 -d 1 -p cbr -e 590 -c 2 -a 0 -i 9 -k MAC
h -t 1.900793333 -s 0 -d 1 -p cbr -e 590 -c 2 -a 0 -i 9 -k MAC
r -t 1.905514500 -s 1 -d 1 -p cbr -e 532 -c 2 -a 0 -i 9 -k MAC
+ -t 1.905524500 -s 1 -d -1 -p ACK -e 38 -c 2 -a 0 -i 0 -k MAC 
- -t 1.905524500 -s 1 -d -1 -p ACK -e 38 -c 2 -a 0 -i 0 -k MAC
h -t 1.905524500 -s 1 -d -1 -p ACK -e 38 -c 2 -a 0 -i 0 -k MAC
r -t 1.905539500 -s 1 -d 1 -p cbr -e 532 -c 2 -a 0 -i 9 -k AGT
r -t 1.905829667 -s 0 -d -1 -p ACK -e 38 -c 2 -a 0 -i 0 -k MAC
+ -t 2.000000000 -s 0 -d -1 -p cbr -e 512 -c 2 -a 0 -i 10 -k AGT 
- -t 2.000000000 -s 0 -d -1 -p cbr -e 512 -c 2 -a 0 -i 10 -k AGT
h -t 2.000000000 -s 0 -d -1 -p cbr -e 512 -c 2 -a 0 -i 10 -k AGT
+ -t 2.000000000 -s 0 -d 1 -p cbr -e 532 -c 2 -a 0 -i 10 -k RTR 
- -t 2.000000000 -s 0 -d 1 -p cbr -e 532 -c 2 -a 0 -i 10 -k RTR
h -t 2.000000000 -s 0 -d 1 -p cbr -e 532 -c 2 -a 0 -i 10 -k RTR
+ -t 2.000435000 -s 0 -d -1 -p RTS -e 44 -c 2 -a 0 -i 0 -k MAC 
- -t 2.000435000 -s 0 -d -1 -p RTS -e 44 -c 2 -a 0 -i 0 -k MAC
h -t 2.000435000 -s 0 -d -1 -p RTS -e 44 -c 2 -a 0 -i 0 -k MAC
r -t 2.000788167 -s 1 -d -1 -p RTS -e 44 -c 2 -a 0 -i 0 -k MAC
+ -t 2.000798167 -s 1 -d -1 -p CTS -e 38 -c 2 -a 0 -i 0 -k MAC 
- -t 2.000798167 -s 1 -d -1 -p CTS -e 38 -c 2 -a 0 -i 0 -k MAC
h -t 2.000798167 -s 1 -d -1 -p CTS -e 38 -c 2 -a 0 -i 0 -k MAC
r -t 2.001103333 -s 0 -d -1 -p CTS -e 38 -c 2 -a 0 -i 0 -k MAC
+ -t 2.001113333 -s 0 -d 1 -p cbr -e 590 -c 2 -a 0 -i 10 -k MAC 
- -t 2.001113333 -s 0 -d 1 -p cbr -e 590 -c 2 -a 0 -i 10 -k MAC
h -t 2.001113333 -s 0 -d 1 -p cbr -e 590 -c 2 -a 0 -i 10 -k MAC
r -t 2.005834500 -s 1 -d 1 -p cbr -e 532 -c 2 -a 0 -i 10 -k MAC
+ -t 2.005844500 -s 1 -d -1 -p ACK -e 38 -c 2 -a 0 -i 0 -k MAC 
- -t 2.005844500 -s 1 -d -1 -p ACK -e 38 -c 2 -a 0 -i 0 -k MAC
h -t 2.005844500 -s 1 -d -1 -p ACK -e 38 -c 2 -a 0 -i 0 -k MAC
r -t 2.005859500 -s 1 -d 1 -p cbr -e 532 -c 2 -a 0 -i 10 -k AGT
r -t 2.006149667 -s 0 -d -1 -p ACK -e 38 -c 2 -a 0 -i 0 -k MAC
+ -t 2.100000000 -s 0 -d -1 -p cbr -e 512 -c 2 -a 0 -i 11 -k AGT 
- -t 2.100000000 -s 0 -d -1 -p cbr -e 512 -c 2 -a 0 -i 11 -k AGT
h -t 2.100000000 -s 0 -d -1 -p cbr -e 512 -c 2 -a 0 -i 11 -k AGT
+ -t 2.100000000 -s 0 -d 1 -p cbr -e 532 -c 2 -a 0 -i 11 -k RTR 
- -t 2.100000000 -s 0 -d 1 -p cbr -e 532 -c 2 -a 0 -i 11 -k RTR
h -t 2.100000000 -s 0 -d 1 -p cbr -e 532 -c 2 -a 0 -i 11 -k RTR
+ -t 2.100155000 -s 0 -d -1 -p RTS -e 44 -c 2 -a 0 -i 0 -k MAC 
- -t 2.100155000 -s 0 -d -1 -p RTS -e 44 -c 2 -a 0 -i 0 -k MAC
h -t 2.100155000 -s 0 -d -1 -p RTS -e 44 -c 2 -a 0 -i 0 -k MAC
r -t 2.100508167 -s 1 -d -1 -p RTS -e 44 -c 2 -a 0 -i 0 -k MAC
+ -t 2.100518167 -s 1 -d -1 -p CTS -e 38 -c 2 -a 0 -i 0 -k MAC 
- -t 2.100518167 -s 1 -d -1 -p CTS -e 38 -c 2 -a 0 -i 0 -k MAC
h -t 2.100518167 -s 1 -d -1 -p CTS -e 38 -c 2 -a 0 -i 0 -k MAC
r -t 2.100823333 -s 0 -d -1 -p CTS -e 38 -c 2 -a 0 -i 0 -k MAC
+ -t 2.100833333 -s 0 -d 1 -p cbr -e 590 -c 2 -a 0 -i 11 -k MAC 
- -t 2.100833333 -s 0 -d 1 -p cbr -e 590 -c 2 -a 0 -i 11 -k MAC
h -t 2.100833333 -s 0 -d 1 -p cbr -e 590 -c 2 -a 0 -i 11 -k MAC
r -t 2.105554500 -s 1 -d 1 -p cbr -e 532 -c 2 -a 0 -i 11 -k MAC
+ -t 2.105564500 -s 1 -d -1 -p ACK -e 38 -c 2 -a 0 -i 0 -k MAC 
- -t 2.105564500 -s 1 -d -1 -p ACK -e 38 -c 2 -a 0 -i 0 -k MAC
h -t 2.105564500 -s 1 -d -1 -p ACK -e 38 -c 2 -a 0 -i 0 -k MAC
r -t 2.105579500 -s 1 -d 1 -p cbr -e 532 -c 2 -a 0 -i 11 -k AGT
r -t 2.105869667 -s 0 -d -1 -p ACK -e 38 -c 2 -a 0 -i 0 -k MAC
+ -t 2.200000000 -s 0 -d -1 -p cbr -e 512 -c 2 -a 0 -i 12 -k AGT 
- -t 2.200000000 -s 0 -d -1 -p cbr -e 512 -c 2 -a 0 -i 12 -k AGT
h -t 2.200000000 -s 0 -d -1 -p cbr -e 512 -c 2 -a 0 -i 12 -k AGT
+ -t 2.200000000 -s 0 -d 1 -p cbr -e 532 -c 2 -a 0 -i 12 -k RTR 
- -t 2.200000000 -s 0 -d 1 -p cbr -e 532 -c 2 -a 0 -i 12 -k RTR
h -t 2.200000000 -s 0 -d 1 -p cbr -e 532 -c 2 -a 0 -i 12 -k RTR
+ -t 2.200275000 -s 0 -d -1 -p RTS -e 44 -c 2 -a 0 -i 0 -k MAC 
- -t 2.200275000 -s 0 -d -1 -p RTS -e 44 -c 2 -a 0 -i 0 -k MAC
h -t 2.200275000 -s 0 -d -1 -p RTS -e 44 -c 2 -a 0 -i 0 -k MAC
r -t 2.200628167 -s 1 -d -1 -p RTS -e 44 -c 2 -a 0 -i 0 -k MAC
+ -t 2.200638167 -s 1 -d -1 -p CTS -e 38 -c 2 -a 0 -i 0 -k MAC 
- -t 2.200638167 -s 1 -d -1 -p CTS -e 38 -c 2 -a 0 -i 0 -k MAC
h -t 2.200638167 -s 1 -d -1 -p CTS -e 38 -c 2 -a 0 -i 0 -k MAC
r -t 2.200943333 -s 0 -d -1 -p CTS -e 38 -c 2 -a 0 -i 0 -k MAC
+ -t 2.200953333 -s 0 -d 1 -p cbr -e 590 -c 2 -a 0 -i 12 -k MAC 
- -t 2.200953333 -s 0 -d 1 -p cbr -e 590 -c 2 -a 0 -i 12 -k MAC
h -t 2.200953333 -s 0 -d 1 -p cbr -e 590 -c 2 -a 0 -i 12 -k MAC
r -t 2.205674500 -s 1 -d 1 -p cbr -e 532 -c 2 -a 0 -i 12 -k MAC
+ -t 2.205684500 -s 1 -d -1 -p ACK -e 38 -c 2 -a 0 -i 0 -k MAC 
- -t 2.205684500 -s 1 -d -1 -p ACK -e 38 -c 2 -a 0 -i 0 -k MAC
h -t 2.205684500 -s 1 -d -1 -p ACK -e 38 -c 2 -a 0 -i 0 -k MAC
r -t 2.205699500 -s 1 -d 1 -p cbr -e 532 -c 2 -a 0 -i 12 -k AGT
r -t 2.205989667 -s 0 -d -1 -p ACK -e 38 -c 2 -a 0 -i 0 -k MAC
+ -t 2.300000000 -s 0 -d -1 -p cbr -e 512 -c 2 -a 0 -i 13 -k AGT 
- -t 2.300000000 -s 0 -d -1 -p cbr -e 512 -c 2 -a 0 -i 13 -k AGT
h -t 2.300000000 -s 0 -d -1 -p cbr -e 512 -c 2 -a 0 -i 13 -k AGT
+ -t 2.300000000 -s 0 -d 1 -p cbr -e 532 -c 2 -a 0 -i 13 -k RTR 
- -t 2.300000000 -s 0 -d 1 -p cbr -e 532 -c 2 -a 0 -i 13 -k RTR
h -t 2.300000000 -s 0 -d 1 -p cbr -e 532 -c 2 -a 0 -i 13 -k RTR
+ -t 2.300595000 -s 0 -d -1 -p RTS -e 44 -c 2 -a 0 -i 0 -k MAC 
- -t 2.300595000 -s 0 -d -1 -p RTS -e 44 -c 2 -a 0 -i 0 -k MAC
h -t 2.300595000 -s 0 -d -1 -p RTS -e 44 -c 2 -a 0 -i 0 -k MAC
r -t 2.300948167 -s 1 -d -1 -p RTS -e 44 -c 2 -a 0 -i 0 -k MAC
+ -t 2.300958167 -s 1 -d -1 -p CTS -e 38 -c 2 -a 0 -i 0 -k MAC 
- -t 2.300958167 -s 1 -d -1 -p CTS -e 38 -c 2 -a 0 -i 0 -k MAC
h -t 2.300958167 -s 1 -d -1 -p CTS -e 38 -c 2 -a 0 -i 0 -k MAC
r -t 2.301263333 -s 0 -d -1 -p CTS -e 38 -c 2 -a 0 -i 0 -k MAC
+ -t 2.301273333 -s 0 -d 1 -p cbr -e 590 -c 2 -a 0 -i 13 -k MAC 
- -t 2.301273333 -s 0 -d 1 -p cbr -e 590 -c 2 -a 0 -i 13 -k MAC
h -t 2.301273333 -s 0 -d 1 -p cbr -e 590 -c 2 -a 0 -i 13 -k MAC
r -t 2.305994500 -s 1 -d 1 -p cbr -e 532 -c 2 -a 0 -i 13 -k MAC
+ -t 2.306004500 -s 1 -d -1 -p ACK -e 38 -c 2 -a 0 -i 0 -k MAC 
- -t 2.306004500 -s 1 -d -1 -p ACK -e 38 -c 2 -a 0 -i 0 -k MAC
h -t 2.306004500 -s 1 -d -1 -p ACK -e 38 -c 2 -a 0 -i 0 -k MAC
r -t 2.306019500 -s 1 -d 1 -p cbr -e 532 -c 2 -a 0 -i 13 -k AGT
r -t 2.306309667 -s 0 -d -1 -p ACK -e 38 -c 2 -a 0 -i 0 -k MAC
+ -t 2.400000000 -s 0 -d -1 -p cbr -e 512 -c 2 -a 0 -i 14 -k AGT 
- -t 2.400000000 -s 0 -d -1 -p cbr -e 512 -c 2 -a 0 -i 14 -k AGT
h -t 2.400000000 -s 0 -d -1 -p cbr -e 512 -c 2 -a 0 -i 14 -k AGT
+ -t 2.400000000 -s 0 -d 1 -p cbr -e 532 -c 2 -a 0 -i 14 -k RTR 
- -t 2.400000000 -s 0 -d 1 -p cbr -e 532 -c 2 -a 0 -i 14 -k RTR
h -t 2.400000000 -s 0 -d 1 -p cbr -e 532 -c 2 -a 0 -i 14 -k RTR
+ -t 2.400275000 -s 0 -d -1 -p RTS -e 44 -c 2 -a 0 -i 0 -k MAC 
- -t 2.400275000 -s 0 -d -1 -p RTS -e 44 -c 2 -a 0 -i 0 -k MAC
h -t 2.400275000 -s 0 -d -1 -p RTS -e 44 -c 2 -a 0 -i 0 -k MAC
r -t 2.400628167 -s 1 -d -1 -p RTS -e 44 -c 2 -a 0 -i 0 -k MAC
+ -t 2.400638167 -s 1 -d -1 -p CTS -e 38 -c 2 -a 0 -i 0 -k MAC 
- -t 2.400638167 -s 1 -d -1 -p CTS -e 38 -c 2 -a 0 -i 0 -k MAC
h -t 2.400638167 -s 1 -d -1 -p CTS -e 38 -c 2 -a 0 -i 0 -k MAC
r -t 2.400943333 -s 0 -d -1 -p CTS -e 38 -c 2 -a 0 -i 0 -k MAC
+ -t 2.400953333 -s 0 -d 1 -p cbr -e 590 -c 2 -a 0 -i 14 -k MAC 
- -t 2.400953333 -s 0 -d 1 -p cbr -e 590 -c 2 -a 0 -i 14 -k MAC
h -t 2.400953333 -s 0 -d 1 -p cbr -e 590 -c 2 -a 0 -i 14 -k MAC
r -t 2.405674500 -s 1 -d 1 -p cbr -e 532 -c 2 -a 0 -i 14 -k MAC
+ -t 2.405684500 -s 1 -d -1 -p ACK -e 38 -c 2 -a 0 -i 0 -k MAC 
- -t 2.405684500 -s 1 -d -1 -p ACK -e 38 -c 2 -a 0 -i 0 -k MAC
h -t 2.405684500 -s 1 -d -1 -p ACK -e 38 -c 2 -a 0 -i 0 -k MAC
r -t 2.405699500 -s 1 -d 1 -p cbr -e 532 -c 2 -a 0 -i 14 -k AGT
r -t 2.405989667 -s 0 -d -1 -p ACK -e 38 -c 2 -a 0 -i 0 -k MAC
+ -t 2.500000000 -s 0 -d -1 -p cbr -e 512 -c 2 -a 0 -i 15 -k AGT 
- -t 2.500000000 -s 0 -d -1 -p cbr -e 512 -c 2 -a 0 -i 15 -k AGT
h -t 2.500000000 -s 0 -d -1 -p cbr -e 512 -c 2 -a 0 -i 15 -k AGT
+ -t 2.500000000 -s 0 -d 1 -p cbr -e 532 -c 2 -a 0 -i 15 -k RTR 
- -t 2.500000000 -s 0 -d 1 -p cbr -e 532 -c 2 -a 0 -i 15 -k RTR
h -t 2.500000000 -s 0 -d 1 -p cbr -e 532 -c 2 -a 0 -i 15 -k RTR
+ -t 2.500135000 -s 0 -d -1 -p RTS -e 44 -c 2 -a 0 -i 0 -k MAC 
- -t 2.500135000 -s 0 -d -1 -p RTS -e 44 -c 2 -a 0 -i 0 -k MAC
h -t 2.500135000 -s 0 -d -1 -p RTS -e 44 -c 2 -a 0 -i 0 -k MAC
r -t 2.500488167 -s 1 -d -1 -p RTS -e 44 -c 2 -a 0 -i 0 -k MAC
+ -t 2.500498167 -s 1 -d -1 -p CTS -e 38 -c 2 -a 0 -i 0 -k MAC 
- -t 2.500498167 -s 1 -d -1 -p CTS -e 38 -c 2 -a 0 -i 0 -k MAC
h -t 2.500498167 -s 1 -d -1 -p CTS -e 38 -c 2 -a 0 -i 0 -k MAC
r -t 2.500803333 -s 0 -d -1 -p CTS -e 38 -c 2 -a 0 -i 0 -k MAC
+ -t 2.500813333 -s 0 -d 1 -p cbr -e 590 -c 2 -a 0 -i 15 -k MAC 
- -t 2.500813333 -s 0 -d 1 -p cbr -e 590 -c 2 -a 0 -i 15 -k MAC
h -t 2.500813333 -s 0 -d 1 -p cbr -e 590 -c 2 -a 0 -i 15 -k MAC
r -t 2.505534500 -s 1 -d 1 -p cbr -e 532 -c 2 -a 0 -i 15 -k MAC
+ -t 2.505544500 -s 1 -d -1 -p ACK -e 38 -c 2 -a 0 -i 0 -k MAC 
- -t 2.505544500 -s 1 -d -1 -p ACK -e 38 -c 2 -a 0 -i 0 -k MAC
h -t 2.505544500 -s 1 -d -1 -p ACK -e 38 -c 2 -a 0 -i 0 -k MAC
r -t 2.505559500 -s 1 -d 1 -p cbr -e 532 -c 2 -a 0 -i 15 -k AGT
r -t 2.505849667 -s 0 -d -1 -p ACK -e 38 -c 2 -a 0 -i 0 -k MAC
+ -t 2.600000000 -s 0 -d -1 -p cbr -e 512 -c 2 -a 0 -i 16 -k AGT 
- -t 2.600000000 -s 0 -d -1 -p cbr -e 512 -c 2 -a 0 -i 16 -k AGT
h -t 2.600000000 -s 0 -d -1 -p cbr -e 512 -c 2 -a 0 -i 16 -k AGT
+ -t 2.600000000 -s 0 -d 1 -p cbr -e 532 -c 2 -a 0 -i 16 -k RTR 
- -t 2.600000000 -s 0 -d 1 -p cbr -e 532 -c 2 -a 0 -i 16 -k RTR
h -t 2.600000000 -s 0 -d 1 -p cbr -e 532 -c 2 -a 0 -i 16 -k RTR
+ -t 2.600415000 -s 0 -d -1 -p RTS -e 44 -c 2 -a 0 -i 0 -k MAC 
- -t 2.600415000 -s 0 -d -1 -p RTS -e 44 -c 2 -a 0 -i 0 -k MAC
h -t 2.600415000 -s 0 -d -1 -p RTS -e 44 -c 2 -a 0 -i 0 -k MAC
r -t 2.600768167 -s 1 -d -1 -p RTS -e 44 -c 2 -a 0 -i 0 -k MAC
+ -t 2.600778167 -s 1 -d -1 -p CTS -e 38 -c 2 -a 0 -i 0 -k MAC 
- -t 2.600778167 -s 1 -d -1 -p CTS -e 38 -c 2 -a 0 -i 0 -k MAC
h -t 2.600778167 -s 1 -d -1 -p CTS -e 38 -c 2 -a 0 -i 0 -k MAC
r -t 2.601083333 -s 0 -d -1 -p CTS -e 38 -c 2 -a 0 -i 0 -k MAC
+ -t 2.601093333 -s 0 -d 1 -p cbr -e 590 -c 2 -a 0 -i 16 -k MAC 
- -t 2.601093333 -s 0 -d 1 -p cbr -e 590 -c 2 -a 0 -i 16 -k MAC
h -t 2.601093333 -s 0 -d 1 -p cbr -e 590 -c 2 -a 0 -i 16 -k MAC
r -t 2.605814500 -s 1 -d 1 -p cbr -e 532 -c 2 -a 0 -i 16 -k MAC
+ -t 2.605824500 -s 1 -d -1 -p ACK -e 38 -c 2 -a 0 -i 0 -k MAC 
- -t 2.605824500 -s 1 -d -1 -p ACK -e 38 -c 2 -a 0 -i 0 -k MAC
h -t 2.605824500 -s 1 -d -1 -p ACK -e 38 -c 2 -a 0 -i 0 -k MAC
r -t 2.605839500 -s 1 -d 1 -p cbr -e 532 -c 2 -a 0 -i 16 -k AGT
r -t 2.606129667 -s 0 -d -1 -p ACK -e 38 -c 2 -a 0 -i 0 -k MAC
+ -t 2.700000000 -s 0 -d -1 -p cbr -e 512 -c 2 -a 0 -i 17 -k AGT 